units           real
atom_style      full
boundary        p p p

pair_style      lj/cut 12.500
bond_style      harmonic
angle_style     cosine/periodic
dihedral_style  harmonic
improper_style  fourier

dielectric      1.0
special_bonds   lj/coul 0.0 0.0 1.0
pair_modify     tail yes mix arithmetic
box tilt        large
read_data   all_input_data
Reading data file ...
  triclinic box = (0 0 0) to (43.394843 6.184109 5.457253) with tilt (2.039086 -0.341142 0.268797)
  10 by 2 by 1 MPI processor grid
  reading atoms ...
  68 atoms
  scanning bonds ...
  3 = max bonds/atom
  scanning angles ...
  3 = max angles/atom
  scanning dihedrals ...
  12 = max dihedrals/atom
  scanning impropers ...
  3 = max impropers/atom
  reading bonds ...
  68 bonds
  reading angles ...
  100 angles
  reading dihedrals ...
  136 dihedrals
  reading impropers ...
  96 impropers
Finding 1-2 1-3 1-4 neighbors ...
  special bond factors lj:    0        0        1       
  special bond factors coul:  0        0        1       
     3 = max # of 1-2 neighbors
     6 = max # of 1-3 neighbors
     9 = max # of special neighbors
  special bonds CPU = 0.002 seconds
  read_data CPU = 0.010 seconds

#### Atom Groupings ####
group           1        id   1:68
68 atoms in group 1
group           1-1      id   1:6 25:26 33:36 49:53
17 atoms in group 1-1
group           1-2      id   7:12 27:28 37:40 54:58
17 atoms in group 1-2
group           1-3      id   13:18 29:30 41:44 59:63
17 atoms in group 1-3
group           1-4      id   19:24 31:32 45:48 64:68
17 atoms in group 1-4
#### END Atom Groupings ####

dump           structure_xyzmov 1 xyz 100000 structure_mov.xyz
dump_modify    structure_xyzmov element C H N O
min_style       cg
print           "MinStep,CellMinStep,AtomMinStep,FinalStep,Energy,EDiff" file p1_structure.min.csv screen no
variable        min_eval   equal 1.00e-06
variable        prev_E     equal 50000.00
variable        iter       loop 100000
label           loop_min
min_style       cg
fix             1 all box/relax tri 10000 vmax 0.05
minimize        1.0e-15 1.0e-15 10000 100000
WARNING: Using 'neigh_modify every 1 delay 0 check yes' setting during minimization (src/min.cpp:187)
----------------------------------------------------------
Using INTEL Package without Coprocessor.
Compiler: Intel LLVM C++ 202202.0 / Intel(R) oneAPI DPC++/C++ Compiler 2022.2.1 (2022.2.1.20221020)
SIMD compiler directives: Enabled
Precision: mixed
----------------------------------------------------------
Generated 6 of 6 mixed pair_coeff terms from arithmetic mixing rule
Neighbor list info ...
  update every 1 steps, delay 0 steps, check yes
  max neighbors/atom: 2000, page size: 100000
  master list distance cutoff = 14.5
  ghost atom cutoff = 14.5
  binsize = 7.25, bins = 7 1 1
  1 neighbor lists, perpetual/occasional/extra = 1 0 0
  (1) pair lj/cut/intel, perpetual
      attributes: half, newton on, intel
      pair build: half/bin/newton/tri/intel
      stencil: half/bin/3d/tri
      bin: intel
WARNING: Bond/angle/dihedral extent > half of periodic box length (src/domain.cpp:940)
Per MPI rank memory allocation (min/avg/max) = 15.44 | 15.82 | 16.41 Mbytes
   Step          Temp          E_pair         E_mol          TotEng         Press          Volume    
         0   0              13206.61       630.89583      13837.506      2579043.4      1464.4999    
        49   0              109.56915      793.60996      903.17911     -11827.218      2069.3847    
WARNING: Bond/angle/dihedral extent > half of periodic box length (src/domain.cpp:940)
Loop time of 0.106676 on 40 procs for 49 steps with 68 atoms

94.9% CPU use with 20 MPI tasks x 2 OpenMP threads

Minimization stats:
  Stopping criterion = linesearch alpha is zero
  Energy initial, next-to-last, final = 
      13837.5058897563   488.910941241528   991.395353834258
  Force two-norm initial, final = 279572.03 4106.6509
  Force max component initial, final = 152134.16 2623.3256
  Final line search alpha, max atom move = 2.1563928e-15 5.6569203e-12
  Iterations, force evaluations = 49 187

MPI task timing breakdown:
Section |  min time  |  avg time  |  max time  |%varavg| %total
---------------------------------------------------------------
Pair    | 0.00029528 | 0.0064657  | 0.01336    |   6.5 |  6.06
Bond    | 6.483e-05  | 0.0043615  | 0.011436   |   6.5 |  4.09
Neigh   | 0.023533   | 0.025817   | 0.028858   |   1.0 | 24.20
Comm    | 0.029041   | 0.045468   | 0.061418   |   5.9 | 42.62
Output  | 0          | 0          | 0          |   0.0 |  0.00
Modify  | 2.4857e-05 | 0.0014827  | 0.0036303  |   3.5 |  1.39
Other   |            | 0.02308    |            |       | 21.64

Nlocal:            3.4 ave          10 max           0 min
Histogram: 8 1 1 0 2 2 2 1 1 2
Nghost:         2771.5 ave        3395 max        2124 min
Histogram: 4 0 2 2 2 0 4 2 0 4
Neighs:          752.2 ave        1951 max           0 min
Histogram: 8 1 1 0 1 3 2 0 1 3

Total # of neighbors = 15044
Ave neighs/atom = 221.23529
Ave special neighs/atom = 4.9411765
Neighbor list builds = 135
Dangerous builds = 124
unfix           1
min_style       fire
variable        tempstp    equal $(step)
variable        tempstp    equal 49
variable        CellMinStep equal ${tempstp}
variable        CellMinStep equal 49
minimize        1.0e-15 1.0e-15 10000 100000
WARNING: Using 'neigh_modify every 1 delay 0 check yes' setting during minimization (src/min.cpp:187)
----------------------------------------------------------
Using INTEL Package without Coprocessor.
Compiler: Intel LLVM C++ 202202.0 / Intel(R) oneAPI DPC++/C++ Compiler 2022.2.1 (2022.2.1.20221020)
SIMD compiler directives: Enabled
Precision: mixed
----------------------------------------------------------
Generated 6 of 6 mixed pair_coeff terms from arithmetic mixing rule
  Parameters for fire: 
    dmax delaystep dtgrow dtshrink alpha0 alphashrink tmax tmin    integrator halfstepback 
     0.1        20    1.1      0.5   0.25        0.99   10 0.02 eulerimplicit          yes 
WARNING: Bond/angle/dihedral extent > half of periodic box length (src/domain.cpp:940)
Per MPI rank memory allocation (min/avg/max) = 14.58 | 14.89 | 15.42 Mbytes
   Step          Temp          E_pair         E_mol          TotEng         Press     
        49   0              109.56915      793.60996      903.17911     -11827.218    
     10049   0.0094776334   42.766793      26.26892       69.037606     -375.64854    
WARNING: Bond/angle/dihedral extent > half of periodic box length (src/domain.cpp:940)
Loop time of 2.18561 on 40 procs for 10000 steps with 68 atoms

95.7% CPU use with 20 MPI tasks x 2 OpenMP threads

Minimization stats:
  Stopping criterion = max iterations
  Energy initial, next-to-last, final = 
      903.179108438339   69.0357447754351   69.0357128453625
  Force two-norm initial, final = 2162.3799 0.47074468
  Force max component initial, final = 1724.6986 0.085144213
  Final line search alpha, max atom move = 0 0
  Iterations, force evaluations = 10000 10533

MPI task timing breakdown:
Section |  min time  |  avg time  |  max time  |%varavg| %total
---------------------------------------------------------------
Pair    | 0.055925   | 0.29689    | 0.59346    |  34.6 | 13.58
Bond    | 0.0018332  | 0.21315    | 0.54154    |  46.8 |  9.75
Neigh   | 0.0014628  | 0.0015731  | 0.0016803  |   0.1 |  0.07
Comm    | 0.66921    | 1.3588     | 1.8684     |  37.8 | 62.17
Output  | 4.1288e-05 | 4.283e-05  | 5.3557e-05 |   0.0 |  0.00
Modify  | 0.00096901 | 0.090799   | 0.19141    |  22.9 |  4.15
Other   |            | 0.2244     |            |       | 10.27

Nlocal:            3.4 ave          10 max           0 min
Histogram: 9 2 0 0 0 1 3 1 2 2
Nghost:         2748.5 ave        3361 max        2050 min
Histogram: 4 1 1 2 2 0 0 4 3 3
Neighs:         765.95 ave        2656 max           0 min
Histogram: 11 0 0 1 1 2 3 1 0 1

Total # of neighbors = 15319
Ave neighs/atom = 225.27941
Ave special neighs/atom = 4.9411765
Neighbor list builds = 4
Dangerous builds = 0
variable        AtomMinStep equal $(step)
variable        AtomMinStep equal 10049
variable        temppe     equal $(pe)
variable        temppe     equal 69.035712845362510848
variable        min_E      equal abs(${prev_E}-${temppe})
variable        min_E      equal abs(50000-${temppe})
variable        min_E      equal abs(50000-69.0357128453625)
print           "${iter},${CellMinStep},${AtomMinStep},${AtomMinStep},$(pe),${min_E}" append p1_structure.min.csv screen no
if              "${min_E} < ${min_eval}" then "jump SELF break_min"
variable        prev_E     equal ${temppe}
variable        prev_E     equal 69.0357128453625
next            iter
jump            SELF loop_min
min_style       cg
fix             1 all box/relax tri 10000 vmax 0.05
minimize        1.0e-15 1.0e-15 10000 100000
WARNING: Using 'neigh_modify every 1 delay 0 check yes' setting during minimization (src/min.cpp:187)
----------------------------------------------------------
Using INTEL Package without Coprocessor.
Compiler: Intel LLVM C++ 202202.0 / Intel(R) oneAPI DPC++/C++ Compiler 2022.2.1 (2022.2.1.20221020)
SIMD compiler directives: Enabled
Precision: mixed
----------------------------------------------------------
Generated 6 of 6 mixed pair_coeff terms from arithmetic mixing rule
WARNING: Bond/angle/dihedral extent > half of periodic box length (src/domain.cpp:940)
Per MPI rank memory allocation (min/avg/max) = 15.71 | 16.12 | 16.57 Mbytes
   Step          Temp          E_pair         E_mol          TotEng         Press          Volume    
     10049   0.0094776334   42.766794      26.269152      69.037838     -375.64209      2069.3847    
     10157   0.0094776334   64.656975      20.048722      84.70759       10767.818      1801.2514    
WARNING: Bond/angle/dihedral extent > half of periodic box length (src/domain.cpp:940)
Loop time of 0.364646 on 40 procs for 108 steps with 68 atoms

99.9% CPU use with 20 MPI tasks x 2 OpenMP threads

Minimization stats:
  Stopping criterion = linesearch alpha is zero
  Energy initial, next-to-last, final = 
      69.0359456731558   45.6012006979165   45.6012006979165
  Force two-norm initial, final = 556.97113 435.671
  Force max component initial, final = 333.23312 374.66159
  Final line search alpha, max atom move = 2.8000421e-13 1.0490682e-10
  Iterations, force evaluations = 108 695

MPI task timing breakdown:
Section |  min time  |  avg time  |  max time  |%varavg| %total
---------------------------------------------------------------
Pair    | 0.001932   | 0.029026   | 0.058858   |  14.2 |  7.96
Bond    | 0.00023446 | 0.018693   | 0.042785   |  14.0 |  5.13
Neigh   | 0.064804   | 0.078354   | 0.084596   |   2.2 | 21.49
Comm    | 0.085222   | 0.15257    | 0.22213    |  14.8 | 41.84
Output  | 0          | 0          | 0          |   0.0 |  0.00
Modify  | 0.00010071 | 0.0064127  | 0.014512   |   7.5 |  1.76
Other   |            | 0.07959    |            |       | 21.83

Nlocal:            3.4 ave          11 max           0 min
Histogram: 11 0 0 0 2 2 1 2 0 2
Nghost:        3450.65 ave        4474 max        2343 min
Histogram: 2 2 1 1 1 6 1 2 2 2
Neighs:          837.4 ave        2771 max           0 min
Histogram: 11 0 0 1 0 3 2 2 0 1

Total # of neighbors = 16748
Ave neighs/atom = 246.29412
Ave special neighs/atom = 4.9411765
Neighbor list builds = 361
Dangerous builds = 262
unfix           1
min_style       fire
variable        tempstp    equal $(step)
variable        tempstp    equal 10157
variable        CellMinStep equal ${tempstp}
variable        CellMinStep equal 10157
minimize        1.0e-15 1.0e-15 10000 100000
WARNING: Using 'neigh_modify every 1 delay 0 check yes' setting during minimization (src/min.cpp:187)
----------------------------------------------------------
Using INTEL Package without Coprocessor.
Compiler: Intel LLVM C++ 202202.0 / Intel(R) oneAPI DPC++/C++ Compiler 2022.2.1 (2022.2.1.20221020)
SIMD compiler directives: Enabled
Precision: mixed
----------------------------------------------------------
Generated 6 of 6 mixed pair_coeff terms from arithmetic mixing rule
  Parameters for fire: 
    dmax delaystep dtgrow dtshrink alpha0 alphashrink tmax tmin    integrator halfstepback 
     0.1        20    1.1      0.5   0.25        0.99   10 0.02 eulerimplicit          yes 
WARNING: Bond/angle/dihedral extent > half of periodic box length (src/domain.cpp:940)
Per MPI rank memory allocation (min/avg/max) = 14.77 | 15.15 | 15.6 Mbytes
   Step          Temp          E_pair         E_mol          TotEng         Press     
     10157   0              64.656975      20.048722      84.705697      10767.77     
     20157   0.0013384273   42.09175       24.49775       66.589767     -127.99809    
WARNING: Bond/angle/dihedral extent > half of periodic box length (src/domain.cpp:940)
Loop time of 2.23432 on 40 procs for 10000 steps with 68 atoms

95.5% CPU use with 20 MPI tasks x 2 OpenMP threads

Minimization stats:
  Stopping criterion = max iterations
  Energy initial, next-to-last, final = 
      84.7056973908027   66.5895726680015   66.5895001356773
  Force two-norm initial, final = 40.415907 0.29279134
  Force max component initial, final = 10.27855 0.062777998
  Final line search alpha, max atom move = 0 0
  Iterations, force evaluations = 10000 10525

MPI task timing breakdown:
Section |  min time  |  avg time  |  max time  |%varavg| %total
---------------------------------------------------------------
Pair    | 0.067062   | 0.33792    | 0.67194    |  38.7 | 15.12
Bond    | 0.0018061  | 0.2296     | 0.54843    |  51.3 | 10.28
Neigh   | 0.00018704 | 0.0002282  | 0.00025438 |   0.0 |  0.01
Comm    | 0.64949    | 1.3502     | 1.9604     |  46.1 | 60.43
Output  | 5.3537e-05 | 5.451e-05  | 5.9471e-05 |   0.0 |  0.00
Modify  | 0.00093209 | 0.10728    | 0.22762    |  28.8 |  4.80
Other   |            | 0.209      |            |       |  9.35

Nlocal:            3.4 ave          10 max           0 min
Histogram: 9 1 1 1 0 1 1 1 2 3
Nghost:         3465.1 ave        4323 max        2532 min
Histogram: 2 2 2 0 3 5 0 1 1 4
Neighs:         833.85 ave        2742 max           0 min
Histogram: 10 1 0 2 0 1 3 1 0 2

Total # of neighbors = 16677
Ave neighs/atom = 245.25
Ave special neighs/atom = 4.9411765
Neighbor list builds = 1
Dangerous builds = 0
variable        AtomMinStep equal $(step)
variable        AtomMinStep equal 20157
variable        temppe     equal $(pe)
variable        temppe     equal 66.589500135677283765
variable        min_E      equal abs(${prev_E}-${temppe})
variable        min_E      equal abs(69.0357128453625-${temppe})
variable        min_E      equal abs(69.0357128453625-66.5895001356773)
print           "${iter},${CellMinStep},${AtomMinStep},${AtomMinStep},$(pe),${min_E}" append p1_structure.min.csv screen no
if              "${min_E} < ${min_eval}" then "jump SELF break_min"
variable        prev_E     equal ${temppe}
variable        prev_E     equal 66.5895001356773
next            iter
jump            SELF loop_min
min_style       cg
fix             1 all box/relax tri 10000 vmax 0.05
minimize        1.0e-15 1.0e-15 10000 100000
WARNING: Using 'neigh_modify every 1 delay 0 check yes' setting during minimization (src/min.cpp:187)
----------------------------------------------------------
Using INTEL Package without Coprocessor.
Compiler: Intel LLVM C++ 202202.0 / Intel(R) oneAPI DPC++/C++ Compiler 2022.2.1 (2022.2.1.20221020)
SIMD compiler directives: Enabled
Precision: mixed
----------------------------------------------------------
Generated 6 of 6 mixed pair_coeff terms from arithmetic mixing rule
WARNING: Bond/angle/dihedral extent > half of periodic box length (src/domain.cpp:940)
Per MPI rank memory allocation (min/avg/max) = 15.89 | 16.28 | 16.73 Mbytes
   Step          Temp          E_pair         E_mol          TotEng         Press          Volume    
     20157   0.0013384273   42.091753      24.501625      66.593645     -128.01207      1801.2514    
     20219   0.0013384273   55.330112      19.953705      75.284085      11065.049      1640.2564    
WARNING: Bond/angle/dihedral extent > half of periodic box length (src/domain.cpp:940)
Loop time of 0.225027 on 40 procs for 62 steps with 68 atoms

98.6% CPU use with 20 MPI tasks x 2 OpenMP threads

Minimization stats:
  Stopping criterion = linesearch alpha is zero
  Energy initial, next-to-last, final = 
      66.5933777397356   51.8043539845133   51.8043539845132
  Force two-norm initial, final = 494.73567 639.149
  Force max component initial, final = 293.69888 612.78421
  Final line search alpha, max atom move = 2.5054628e-11 1.535308e-08
  Iterations, force evaluations = 62 370

MPI task timing breakdown:
Section |  min time  |  avg time  |  max time  |%varavg| %total
---------------------------------------------------------------
Pair    | 0.0012093  | 0.018715   | 0.037673   |  11.3 |  8.32
Bond    | 0.00014894 | 0.010033   | 0.023714   |  10.8 |  4.46
Neigh   | 0.042587   | 0.050354   | 0.055007   |   1.7 | 22.38
Comm    | 0.05452    | 0.096375   | 0.13761    |  11.0 | 42.83
Output  | 0          | 0          | 0          |   0.0 |  0.00
Modify  | 5.4559e-05 | 0.0040419  | 0.009084   |   5.9 |  1.80
Other   |            | 0.04551    |            |       | 20.22

Nlocal:            3.4 ave          10 max           0 min
Histogram: 9 0 1 2 0 1 2 1 2 2
Nghost:         4019.4 ave        5064 max        3246 min
Histogram: 6 0 0 4 3 1 1 1 2 2
Neighs:         899.95 ave        2870 max           0 min
Histogram: 9 1 1 2 1 0 2 2 0 2

Total # of neighbors = 17999
Ave neighs/atom = 264.69118
Ave special neighs/atom = 4.9411765
Neighbor list builds = 196
Dangerous builds = 139
unfix           1
min_style       fire
variable        tempstp    equal $(step)
variable        tempstp    equal 20219
variable        CellMinStep equal ${tempstp}
variable        CellMinStep equal 20219
minimize        1.0e-15 1.0e-15 10000 100000
WARNING: Using 'neigh_modify every 1 delay 0 check yes' setting during minimization (src/min.cpp:187)
----------------------------------------------------------
Using INTEL Package without Coprocessor.
Compiler: Intel LLVM C++ 202202.0 / Intel(R) oneAPI DPC++/C++ Compiler 2022.2.1 (2022.2.1.20221020)
SIMD compiler directives: Enabled
Precision: mixed
----------------------------------------------------------
Generated 6 of 6 mixed pair_coeff terms from arithmetic mixing rule
  Parameters for fire: 
    dmax delaystep dtgrow dtshrink alpha0 alphashrink tmax tmin    integrator halfstepback 
     0.1        20    1.1      0.5   0.25        0.99   10 0.02 eulerimplicit          yes 
WARNING: Bond/angle/dihedral extent > half of periodic box length (src/domain.cpp:940)
Per MPI rank memory allocation (min/avg/max) = 14.86 | 15.32 | 15.79 Mbytes
   Step          Temp          E_pair         E_mol          TotEng         Press     
     20219   0              55.330112      19.953705      75.283818      11065.042    
     30219   3.1636894e-06  39.225675      25.065093      64.290769     -417.39881    
WARNING: Bond/angle/dihedral extent > half of periodic box length (src/domain.cpp:940)
Loop time of 2.52149 on 40 procs for 10000 steps with 68 atoms

95.6% CPU use with 20 MPI tasks x 2 OpenMP threads

Minimization stats:
  Stopping criterion = max iterations
  Energy initial, next-to-last, final = 
      75.2838176713018   64.2908428989033   64.2907680493461
  Force two-norm initial, final = 56.146812 0.14557308
  Force max component initial, final = 15.366823 0.027569182
  Final line search alpha, max atom move = 0 0
  Iterations, force evaluations = 10000 10532

MPI task timing breakdown:
Section |  min time  |  avg time  |  max time  |%varavg| %total
---------------------------------------------------------------
Pair    | 0.081851   | 0.40191    | 0.67713    |  33.1 | 15.94
Bond    | 0.0019208  | 0.24953    | 0.54699    |  47.2 |  9.90
Neigh   | 0.00024132 | 0.00032473 | 0.00036062 |   0.0 |  0.01
Comm    | 0.8479     | 1.4581     | 2.1762     |  41.9 | 57.83
Output  | 4.1444e-05 | 4.277e-05  | 5.4702e-05 |   0.0 |  0.00
Modify  | 0.001002   | 0.15139    | 0.29887    |  26.7 |  6.00
Other   |            | 0.2602     |            |       | 10.32

Nlocal:            3.4 ave           9 max           0 min
Histogram: 6 2 1 2 2 1 1 3 0 2
Nghost:         4085.1 ave        5030 max        3342 min
Histogram: 5 1 2 2 1 3 1 1 1 3
Neighs:         894.75 ave        2511 max           0 min
Histogram: 8 1 0 3 1 3 0 0 2 2

Total # of neighbors = 17895
Ave neighs/atom = 263.16176
Ave special neighs/atom = 4.9411765
Neighbor list builds = 1
Dangerous builds = 0
variable        AtomMinStep equal $(step)
variable        AtomMinStep equal 30219
variable        temppe     equal $(pe)
variable        temppe     equal 64.2907680493461271
variable        min_E      equal abs(${prev_E}-${temppe})
variable        min_E      equal abs(66.5895001356773-${temppe})
variable        min_E      equal abs(66.5895001356773-64.2907680493461)
print           "${iter},${CellMinStep},${AtomMinStep},${AtomMinStep},$(pe),${min_E}" append p1_structure.min.csv screen no
if              "${min_E} < ${min_eval}" then "jump SELF break_min"
variable        prev_E     equal ${temppe}
variable        prev_E     equal 64.2907680493461
next            iter
jump            SELF loop_min
min_style       cg
fix             1 all box/relax tri 10000 vmax 0.05
minimize        1.0e-15 1.0e-15 10000 100000
WARNING: Using 'neigh_modify every 1 delay 0 check yes' setting during minimization (src/min.cpp:187)
----------------------------------------------------------
Using INTEL Package without Coprocessor.
Compiler: Intel LLVM C++ 202202.0 / Intel(R) oneAPI DPC++/C++ Compiler 2022.2.1 (2022.2.1.20221020)
SIMD compiler directives: Enabled
Precision: mixed
----------------------------------------------------------
Generated 6 of 6 mixed pair_coeff terms from arithmetic mixing rule
WARNING: Bond/angle/dihedral extent > half of periodic box length (src/domain.cpp:940)
Per MPI rank memory allocation (min/avg/max) = 15.99 | 16.46 | 16.92 Mbytes
   Step          Temp          E_pair         E_mol          TotEng         Press          Volume    
     30219   3.1636894e-06  39.225675      25.065093      64.290769     -417.39881      1640.2564    
     30281   3.1636894e-06  52.554241      19.419317      71.973558      10311.105      1504.2086    
WARNING: Bond/angle/dihedral extent > half of periodic box length (src/domain.cpp:940)
Loop time of 0.291357 on 40 procs for 62 steps with 68 atoms

100.5% CPU use with 20 MPI tasks x 2 OpenMP threads

Minimization stats:
  Stopping criterion = linesearch alpha is zero
  Energy initial, next-to-last, final = 
      64.2907680526862   52.1323775246614   52.1323775246614
  Force two-norm initial, final = 448.81405 527.5183
  Force max component initial, final = 265.58442 412.47666
  Final line search alpha, max atom move = 1.0169107e-12 4.1945193e-10
  Iterations, force evaluations = 62 458

MPI task timing breakdown:
Section |  min time  |  avg time  |  max time  |%varavg| %total
---------------------------------------------------------------
Pair    | 0.0020629  | 0.029967   | 0.049587   |  10.4 | 10.29
Bond    | 0.00018434 | 0.014256   | 0.029897   |  11.0 |  4.89
Neigh   | 0.055048   | 0.063143   | 0.068924   |   1.7 | 21.67
Comm    | 0.075442   | 0.11791    | 0.17782    |  11.5 | 40.47
Output  | 0          | 0          | 0          |   0.0 |  0.00
Modify  | 6.9762e-05 | 0.0072819  | 0.015145   |   6.2 |  2.50
Other   |            | 0.0588     |            |       | 20.18

Nlocal:            3.4 ave           9 max           0 min
Histogram: 6 2 1 2 2 1 1 3 0 2
Nghost:        4849.65 ave        5748 max        4186 min
Histogram: 5 3 2 0 0 4 1 1 2 2
Neighs:          957.3 ave        2580 max           0 min
Histogram: 7 2 0 2 2 2 1 0 2 2

Total # of neighbors = 19146
Ave neighs/atom = 281.55882
Ave special neighs/atom = 4.9411765
Neighbor list builds = 209
Dangerous builds = 151
unfix           1
min_style       fire
variable        tempstp    equal $(step)
variable        tempstp    equal 30281
variable        CellMinStep equal ${tempstp}
variable        CellMinStep equal 30281
minimize        1.0e-15 1.0e-15 10000 100000
WARNING: Using 'neigh_modify every 1 delay 0 check yes' setting during minimization (src/min.cpp:187)
----------------------------------------------------------
Using INTEL Package without Coprocessor.
Compiler: Intel LLVM C++ 202202.0 / Intel(R) oneAPI DPC++/C++ Compiler 2022.2.1 (2022.2.1.20221020)
SIMD compiler directives: Enabled
Precision: mixed
----------------------------------------------------------
Generated 6 of 6 mixed pair_coeff terms from arithmetic mixing rule
  Parameters for fire: 
    dmax delaystep dtgrow dtshrink alpha0 alphashrink tmax tmin    integrator halfstepback 
     0.1        20    1.1      0.5   0.25        0.99   10 0.02 eulerimplicit          yes 
WARNING: Bond/angle/dihedral extent > half of periodic box length (src/domain.cpp:940)
Per MPI rank memory allocation (min/avg/max) = 14.92 | 15.41 | 15.86 Mbytes
   Step          Temp          E_pair         E_mol          TotEng         Press     
     30281   0              52.554241      19.419317      71.973558      10311.105    
     40281   5.2500622e-05  38.038801      25.407628      63.44644      -669.26949    
WARNING: Bond/angle/dihedral extent > half of periodic box length (src/domain.cpp:940)
Loop time of 2.6874 on 40 procs for 10000 steps with 68 atoms

96.8% CPU use with 20 MPI tasks x 2 OpenMP threads

Minimization stats:
  Stopping criterion = max iterations
  Energy initial, next-to-last, final = 
      71.9735576928115   63.4464757225919    63.446429596162
  Force two-norm initial, final = 49.401233 0.053501137
  Force max component initial, final = 12.081826 0.0099813324
  Final line search alpha, max atom move = 0 0
  Iterations, force evaluations = 10000 10534

MPI task timing breakdown:
Section |  min time  |  avg time  |  max time  |%varavg| %total
---------------------------------------------------------------
Pair    | 0.095973   | 0.45424    | 0.73896    |  32.5 | 16.90
Bond    | 0.0018797  | 0.25428    | 0.53781    |  46.3 |  9.46
Neigh   | 0          | 0          | 0          |   0.0 |  0.00
Comm    | 0.91648    | 1.5343     | 2.3337     |  42.4 | 57.09
Output  | 5.4944e-05 | 5.6521e-05 | 6.5708e-05 |   0.0 |  0.00
Modify  | 0.0010276  | 0.1905     | 0.35968    |  29.2 |  7.09
Other   |            | 0.2541     |            |       |  9.45

Nlocal:            3.4 ave           9 max           0 min
Histogram: 6 2 1 2 2 1 1 3 0 2
Nghost:           4876 ave        5786 max        4198 min
Histogram: 4 3 3 0 0 3 2 1 2 2
Neighs:         960.75 ave        2591 max           0 min
Histogram: 7 2 0 2 2 2 1 0 2 2

Total # of neighbors = 19215
Ave neighs/atom = 282.57353
Ave special neighs/atom = 4.9411765
Neighbor list builds = 0
Dangerous builds = 0
variable        AtomMinStep equal $(step)
variable        AtomMinStep equal 40281
variable        temppe     equal $(pe)
variable        temppe     equal 63.44642959616196265
variable        min_E      equal abs(${prev_E}-${temppe})
variable        min_E      equal abs(64.2907680493461-${temppe})
variable        min_E      equal abs(64.2907680493461-63.446429596162)
print           "${iter},${CellMinStep},${AtomMinStep},${AtomMinStep},$(pe),${min_E}" append p1_structure.min.csv screen no
if              "${min_E} < ${min_eval}" then "jump SELF break_min"
variable        prev_E     equal ${temppe}
variable        prev_E     equal 63.446429596162
next            iter
jump            SELF loop_min
min_style       cg
fix             1 all box/relax tri 10000 vmax 0.05
minimize        1.0e-15 1.0e-15 10000 100000
WARNING: Using 'neigh_modify every 1 delay 0 check yes' setting during minimization (src/min.cpp:187)
----------------------------------------------------------
Using INTEL Package without Coprocessor.
Compiler: Intel LLVM C++ 202202.0 / Intel(R) oneAPI DPC++/C++ Compiler 2022.2.1 (2022.2.1.20221020)
SIMD compiler directives: Enabled
Precision: mixed
----------------------------------------------------------
Generated 6 of 6 mixed pair_coeff terms from arithmetic mixing rule
WARNING: Bond/angle/dihedral extent > half of periodic box length (src/domain.cpp:940)
Per MPI rank memory allocation (min/avg/max) = 16.04 | 16.53 | 16.99 Mbytes
   Step          Temp          E_pair         E_mol          TotEng         Press          Volume    
     40281   5.2500622e-05  38.0388        24.633025      62.671836     -669.3269       1504.2086    
     40327   5.2500622e-05  333.34574      1037.9846      1371.3304      19586.49       1422.3198    
WARNING: Bond/angle/dihedral extent > half of periodic box length (src/domain.cpp:940)
Loop time of 0.268054 on 40 procs for 46 steps with 68 atoms

101.1% CPU use with 20 MPI tasks x 2 OpenMP threads

Minimization stats:
  Stopping criterion = linesearch alpha is zero
  Energy initial, next-to-last, final = 
      62.6718256574636   56.0417969519257   1359.38776007377
  Force two-norm initial, final = 424.10695 12026.44
  Force max component initial, final = 248.36644 9792.8125
  Final line search alpha, max atom move = 1.1980202e-12 1.1731987e-08
  Iterations, force evaluations = 46 417

MPI task timing breakdown:
Section |  min time  |  avg time  |  max time  |%varavg| %total
---------------------------------------------------------------
Pair    | 0.0024506  | 0.031646   | 0.049045   |   9.5 | 11.81
Bond    | 0.00017723 | 0.013758   | 0.027985   |  10.0 |  5.13
Neigh   | 0.046851   | 0.053374   | 0.058886   |   1.7 | 19.91
Comm    | 0.06681    | 0.10686    | 0.16652    |  10.9 | 39.87
Output  | 0          | 0          | 0          |   0.0 |  0.00
Modify  | 6.2234e-05 | 0.0082897  | 0.015374   |   6.2 |  3.09
Other   |            | 0.05413    |            |       | 20.19

Nlocal:            3.4 ave           8 max           0 min
Histogram: 5 2 1 2 0 1 4 2 2 1
Nghost:         5387.7 ave        6138 max        4742 min
Histogram: 3 2 2 3 2 2 0 2 1 3
Neighs:           1016 ave        2407 max           0 min
Histogram: 5 2 1 1 2 3 1 2 1 2

Total # of neighbors = 20320
Ave neighs/atom = 298.82353
Ave special neighs/atom = 4.9411765
Neighbor list builds = 167
Dangerous builds = 107
unfix           1
min_style       fire
variable        tempstp    equal $(step)
variable        tempstp    equal 40327
variable        CellMinStep equal ${tempstp}
variable        CellMinStep equal 40327
minimize        1.0e-15 1.0e-15 10000 100000
WARNING: Using 'neigh_modify every 1 delay 0 check yes' setting during minimization (src/min.cpp:187)
----------------------------------------------------------
Using INTEL Package without Coprocessor.
Compiler: Intel LLVM C++ 202202.0 / Intel(R) oneAPI DPC++/C++ Compiler 2022.2.1 (2022.2.1.20221020)
SIMD compiler directives: Enabled
Precision: mixed
----------------------------------------------------------
Generated 6 of 6 mixed pair_coeff terms from arithmetic mixing rule
  Parameters for fire: 
    dmax delaystep dtgrow dtshrink alpha0 alphashrink tmax tmin    integrator halfstepback 
     0.1        20    1.1      0.5   0.25        0.99   10 0.02 eulerimplicit          yes 
WARNING: Bond/angle/dihedral extent > half of periodic box length (src/domain.cpp:940)
Per MPI rank memory allocation (min/avg/max) = 15.02 | 15.55 | 16.03 Mbytes
   Step          Temp          E_pair         E_mol          TotEng         Press     
     40327   0              333.34574      1037.9846      1371.3304      19586.489    
     50327   9.22637e-06    37.382102      24.874834      62.256938     -776.03818    
WARNING: Bond/angle/dihedral extent > half of periodic box length (src/domain.cpp:940)
Loop time of 2.9735 on 40 procs for 10000 steps with 68 atoms

97.0% CPU use with 20 MPI tasks x 2 OpenMP threads

Minimization stats:
  Stopping criterion = max iterations
  Energy initial, next-to-last, final = 
      1371.33039497864   62.2569540096059   62.2569362597083
  Force two-norm initial, final = 3295.9293 0.044239738
  Force max component initial, final = 1799.1071 0.011266992
  Final line search alpha, max atom move = 0 0
  Iterations, force evaluations = 10000 10537

MPI task timing breakdown:
Section |  min time  |  avg time  |  max time  |%varavg| %total
---------------------------------------------------------------
Pair    | 0.10059    | 0.49751    | 0.7986     |  31.7 | 16.73
Bond    | 0.0019562  | 0.28225    | 0.54462    |  41.8 |  9.49
Neigh   | 0.00026851 | 0.00031452 | 0.00035282 |   0.0 |  0.01
Comm    | 1.0456     | 1.7064     | 2.598      |  41.4 | 57.39
Output  | 4.4346e-05 | 4.5757e-05 | 5.2558e-05 |   0.0 |  0.00
Modify  | 0.00098474 | 0.23125    | 0.37438    |  29.1 |  7.78
Other   |            | 0.2558     |            |       |  8.60

Nlocal:            3.4 ave           8 max           0 min
Histogram: 5 2 0 3 0 1 4 3 1 1
Nghost:         5378.6 ave        6138 max        4742 min
Histogram: 3 2 2 3 2 2 1 1 1 3
Neighs:         1016.5 ave        2395 max           0 min
Histogram: 5 2 0 1 3 3 1 2 2 1

Total # of neighbors = 20330
Ave neighs/atom = 298.97059
Ave special neighs/atom = 4.9411765
Neighbor list builds = 1
Dangerous builds = 0
variable        AtomMinStep equal $(step)
variable        AtomMinStep equal 50327
variable        temppe     equal $(pe)
variable        temppe     equal 62.25693625970833267
variable        min_E      equal abs(${prev_E}-${temppe})
variable        min_E      equal abs(63.446429596162-${temppe})
variable        min_E      equal abs(63.446429596162-62.2569362597083)
print           "${iter},${CellMinStep},${AtomMinStep},${AtomMinStep},$(pe),${min_E}" append p1_structure.min.csv screen no
if              "${min_E} < ${min_eval}" then "jump SELF break_min"
variable        prev_E     equal ${temppe}
variable        prev_E     equal 62.2569362597083
next            iter
jump            SELF loop_min
min_style       cg
fix             1 all box/relax tri 10000 vmax 0.05
minimize        1.0e-15 1.0e-15 10000 100000
WARNING: Using 'neigh_modify every 1 delay 0 check yes' setting during minimization (src/min.cpp:187)
----------------------------------------------------------
Using INTEL Package without Coprocessor.
Compiler: Intel LLVM C++ 202202.0 / Intel(R) oneAPI DPC++/C++ Compiler 2022.2.1 (2022.2.1.20221020)
SIMD compiler directives: Enabled
Precision: mixed
----------------------------------------------------------
Generated 6 of 6 mixed pair_coeff terms from arithmetic mixing rule
WARNING: Bond/angle/dihedral extent > half of periodic box length (src/domain.cpp:940)
Per MPI rank memory allocation (min/avg/max) = 16.15 | 16.67 | 17.15 Mbytes
   Step          Temp          E_pair         E_mol          TotEng         Press          Volume    
     50327   9.22637e-06    37.382099      26.33479       63.716891     -776.04536      1422.3198    
     50339   9.22637e-06    45.257018      21.577812      66.834832      9651.6731      1366.8836    
WARNING: Bond/angle/dihedral extent > half of periodic box length (src/domain.cpp:940)
Loop time of 0.0633134 on 40 procs for 12 steps with 68 atoms

97.9% CPU use with 20 MPI tasks x 2 OpenMP threads

Minimization stats:
  Stopping criterion = linesearch alpha is zero
  Energy initial, next-to-last, final = 
      63.7168888098445   58.7500176609777   58.7500176609778
  Force two-norm initial, final = 402.86115 326.21691
  Force max component initial, final = 237.28098 312.94202
  Final line search alpha, max atom move = 1.2357587e-13 3.8672082e-11
  Iterations, force evaluations = 12 98

MPI task timing breakdown:
Section |  min time  |  avg time  |  max time  |%varavg| %total
---------------------------------------------------------------
Pair    | 0.00069795 | 0.00794    | 0.012836   |   4.7 | 12.54
Bond    | 4.2517e-05 | 0.0029177  | 0.0067023  |   5.0 |  4.61
Neigh   | 0.010029   | 0.011049   | 0.012041   |   0.6 | 17.45
Comm    | 0.01607    | 0.026543   | 0.039933   |   5.1 | 41.92
Output  | 0          | 0          | 0          |   0.0 |  0.00
Modify  | 1.6063e-05 | 0.0019799  | 0.0040395  |   3.2 |  3.13
Other   |            | 0.01288    |            |       | 20.35

Nlocal:            3.4 ave           9 max           0 min
Histogram: 5 2 3 0 0 4 4 1 0 1
Nghost:         5700.4 ave        6370 max        5057 min
Histogram: 2 1 3 3 3 2 1 1 1 3
Neighs:        1050.15 ave        2793 max           0 min
Histogram: 6 1 3 0 0 4 3 1 1 1

Total # of neighbors = 21003
Ave neighs/atom = 308.86765
Ave special neighs/atom = 4.9411765
Neighbor list builds = 30
Dangerous builds = 19
unfix           1
min_style       fire
variable        tempstp    equal $(step)
variable        tempstp    equal 50339
variable        CellMinStep equal ${tempstp}
variable        CellMinStep equal 50339
minimize        1.0e-15 1.0e-15 10000 100000
WARNING: Using 'neigh_modify every 1 delay 0 check yes' setting during minimization (src/min.cpp:187)
----------------------------------------------------------
Using INTEL Package without Coprocessor.
Compiler: Intel LLVM C++ 202202.0 / Intel(R) oneAPI DPC++/C++ Compiler 2022.2.1 (2022.2.1.20221020)
SIMD compiler directives: Enabled
Precision: mixed
----------------------------------------------------------
Generated 6 of 6 mixed pair_coeff terms from arithmetic mixing rule
  Parameters for fire: 
    dmax delaystep dtgrow dtshrink alpha0 alphashrink tmax tmin    integrator halfstepback 
     0.1        20    1.1      0.5   0.25        0.99   10 0.02 eulerimplicit          yes 
WARNING: Bond/angle/dihedral extent > half of periodic box length (src/domain.cpp:940)
Per MPI rank memory allocation (min/avg/max) = 15.03 | 15.56 | 16.04 Mbytes
   Step          Temp          E_pair         E_mol          TotEng         Press     
     50339   0              45.257018      21.577812      66.83483       9651.6731    
     60339   6.838841e-06   36.839866      26.42977       63.269638     -877.92994    
WARNING: Bond/angle/dihedral extent > half of periodic box length (src/domain.cpp:940)
Loop time of 3.06619 on 40 procs for 10000 steps with 68 atoms

97.9% CPU use with 20 MPI tasks x 2 OpenMP threads

Minimization stats:
  Stopping criterion = max iterations
  Energy initial, next-to-last, final = 
      66.8348299885882   63.2696955893323   63.2696363394846
  Force two-norm initial, final = 63.782614 0.061081348
  Force max component initial, final = 19.173177 0.015249807
  Final line search alpha, max atom move = 0 0
  Iterations, force evaluations = 10000 10537

MPI task timing breakdown:
Section |  min time  |  avg time  |  max time  |%varavg| %total
---------------------------------------------------------------
Pair    | 0.11336    | 0.52084    | 0.81671    |  33.3 | 16.99
Bond    | 0.0019672  | 0.23572    | 0.55484    |  46.4 |  7.69
Neigh   | 0          | 0          | 0          |   0.0 |  0.00
Comm    | 1.094      | 1.8047     | 2.6646     |  40.8 | 58.86
Output  | 5.2406e-05 | 5.4138e-05 | 6.4766e-05 |   0.0 |  0.00
Modify  | 0.001009   | 0.24875    | 0.39665    |  29.6 |  8.11
Other   |            | 0.2561     |            |       |  8.35

Nlocal:            3.4 ave           9 max           0 min
Histogram: 5 2 3 0 0 4 4 1 0 1
Nghost:        5766.55 ave        6384 max        5281 min
Histogram: 4 2 3 1 2 2 2 0 1 3
Neighs:        1059.55 ave        2792 max           0 min
Histogram: 5 2 3 0 0 4 3 1 1 1

Total # of neighbors = 21191
Ave neighs/atom = 311.63235
Ave special neighs/atom = 4.9411765
Neighbor list builds = 0
Dangerous builds = 0
variable        AtomMinStep equal $(step)
variable        AtomMinStep equal 60339
variable        temppe     equal $(pe)
variable        temppe     equal 63.269636339484577547
variable        min_E      equal abs(${prev_E}-${temppe})
variable        min_E      equal abs(62.2569362597083-${temppe})
variable        min_E      equal abs(62.2569362597083-63.2696363394846)
print           "${iter},${CellMinStep},${AtomMinStep},${AtomMinStep},$(pe),${min_E}" append p1_structure.min.csv screen no
if              "${min_E} < ${min_eval}" then "jump SELF break_min"
variable        prev_E     equal ${temppe}
variable        prev_E     equal 63.2696363394846
next            iter
jump            SELF loop_min
min_style       cg
fix             1 all box/relax tri 10000 vmax 0.05
minimize        1.0e-15 1.0e-15 10000 100000
WARNING: Using 'neigh_modify every 1 delay 0 check yes' setting during minimization (src/min.cpp:187)
----------------------------------------------------------
Using INTEL Package without Coprocessor.
Compiler: Intel LLVM C++ 202202.0 / Intel(R) oneAPI DPC++/C++ Compiler 2022.2.1 (2022.2.1.20221020)
SIMD compiler directives: Enabled
Precision: mixed
----------------------------------------------------------
Generated 6 of 6 mixed pair_coeff terms from arithmetic mixing rule
WARNING: Bond/angle/dihedral extent > half of periodic box length (src/domain.cpp:940)
Per MPI rank memory allocation (min/avg/max) = 16.16 | 16.69 | 17.16 Mbytes
   Step          Temp          E_pair         E_mol          TotEng         Press          Volume    
     60339   6.838841e-06   36.839857      26.429781      63.269639     -877.96121      1366.8836    
     60402   6.838841e-06   43.90466       21.650719      65.555381      8850.8087      1315.6057    
WARNING: Bond/angle/dihedral extent > half of periodic box length (src/domain.cpp:940)
Loop time of 0.410483 on 40 procs for 63 steps with 68 atoms

101.8% CPU use with 20 MPI tasks x 2 OpenMP threads

Minimization stats:
  Stopping criterion = linesearch alpha is zero
  Energy initial, next-to-last, final = 
      63.2696379662247    58.077026892319    58.077026892319
  Force two-norm initial, final = 391.18131 748.994
  Force max component initial, final = 229.64982 592.9523
  Final line search alpha, max atom move = 1.1331906e-13 6.7192799e-11
  Iterations, force evaluations = 63 584

MPI task timing breakdown:
Section |  min time  |  avg time  |  max time  |%varavg| %total
---------------------------------------------------------------
Pair    | 0.0040551  | 0.052438   | 0.075813   |  10.8 | 12.77
Bond    | 0.00027734 | 0.020029   | 0.041286   |  11.5 |  4.88
Neigh   | 0.073271   | 0.081136   | 0.089739   |   1.8 | 19.77
Comm    | 0.10791    | 0.16188    | 0.25327    |  12.2 | 39.44
Output  | 0          | 0          | 0          |   0.0 |  0.00
Modify  | 9.273e-05  | 0.014371   | 0.025691   |   7.5 |  3.50
Other   |            | 0.08062    |            |       | 19.64

Nlocal:            3.4 ave           8 max           0 min
Histogram: 4 2 0 5 0 2 2 3 1 1
Nghost:         6223.8 ave        6706 max        5867 min
Histogram: 6 2 0 0 4 2 2 0 0 4
Neighs:         1103.1 ave        2587 max           0 min
Histogram: 4 2 0 4 3 1 1 2 2 1

Total # of neighbors = 22062
Ave neighs/atom = 324.44118
Ave special neighs/atom = 4.9411765
Neighbor list builds = 212
Dangerous builds = 124
unfix           1
min_style       fire
variable        tempstp    equal $(step)
variable        tempstp    equal 60402
variable        CellMinStep equal ${tempstp}
variable        CellMinStep equal 60402
minimize        1.0e-15 1.0e-15 10000 100000
WARNING: Using 'neigh_modify every 1 delay 0 check yes' setting during minimization (src/min.cpp:187)
----------------------------------------------------------
Using INTEL Package without Coprocessor.
Compiler: Intel LLVM C++ 202202.0 / Intel(R) oneAPI DPC++/C++ Compiler 2022.2.1 (2022.2.1.20221020)
SIMD compiler directives: Enabled
Precision: mixed
----------------------------------------------------------
Generated 6 of 6 mixed pair_coeff terms from arithmetic mixing rule
  Parameters for fire: 
    dmax delaystep dtgrow dtshrink alpha0 alphashrink tmax tmin    integrator halfstepback 
     0.1        20    1.1      0.5   0.25        0.99   10 0.02 eulerimplicit          yes 
WARNING: Bond/angle/dihedral extent > half of periodic box length (src/domain.cpp:940)
Per MPI rank memory allocation (min/avg/max) = 15.08 | 15.68 | 16.14 Mbytes
   Step          Temp          E_pair         E_mol          TotEng         Press     
     60402   0              43.90466       21.650719      65.555379      8850.8086    
     70402   0.00030789514  36.187488      26.514469      62.702019     -1058.2528    
WARNING: Bond/angle/dihedral extent > half of periodic box length (src/domain.cpp:940)
Loop time of 3.26513 on 40 procs for 10000 steps with 68 atoms

98.4% CPU use with 20 MPI tasks x 2 OpenMP threads

Minimization stats:
  Stopping criterion = max iterations
  Energy initial, next-to-last, final = 
      65.5553794740373   62.7020791758125   62.7019573196878
  Force two-norm initial, final = 45.652412 0.082130003
  Force max component initial, final = 13.899532 0.022751983
  Final line search alpha, max atom move = 0 0
  Iterations, force evaluations = 10000 10535

MPI task timing breakdown:
Section |  min time  |  avg time  |  max time  |%varavg| %total
---------------------------------------------------------------
Pair    | 0.12159    | 0.56634    | 0.85347    |  30.2 | 17.35
Bond    | 0.0019559  | 0.25637    | 0.5549     |  41.7 |  7.85
Neigh   | 0          | 0          | 0          |   0.0 |  0.00
Comm    | 1.1649     | 1.8922     | 2.8605     |  38.4 | 57.95
Output  | 3.2625e-05 | 3.3904e-05 | 4.1793e-05 |   0.0 |  0.00
Modify  | 0.0010442  | 0.28987    | 0.43871    |  28.3 |  8.88
Other   |            | 0.2603     |            |       |  7.97

Nlocal:            3.4 ave           8 max           0 min
Histogram: 4 2 0 5 0 2 2 3 1 1
Nghost:        6257.75 ave        6692 max        5881 min
Histogram: 4 4 0 0 0 6 0 2 0 4
Neighs:        1102.55 ave        2594 max           0 min
Histogram: 4 2 0 4 3 1 1 2 2 1

Total # of neighbors = 22051
Ave neighs/atom = 324.27941
Ave special neighs/atom = 4.9411765
Neighbor list builds = 0
Dangerous builds = 0
variable        AtomMinStep equal $(step)
variable        AtomMinStep equal 70402
variable        temppe     equal $(pe)
variable        temppe     equal 62.701957319687828374
variable        min_E      equal abs(${prev_E}-${temppe})
variable        min_E      equal abs(63.2696363394846-${temppe})
variable        min_E      equal abs(63.2696363394846-62.7019573196878)
print           "${iter},${CellMinStep},${AtomMinStep},${AtomMinStep},$(pe),${min_E}" append p1_structure.min.csv screen no
if              "${min_E} < ${min_eval}" then "jump SELF break_min"
variable        prev_E     equal ${temppe}
variable        prev_E     equal 62.7019573196878
next            iter
jump            SELF loop_min
min_style       cg
fix             1 all box/relax tri 10000 vmax 0.05
minimize        1.0e-15 1.0e-15 10000 100000
WARNING: Using 'neigh_modify every 1 delay 0 check yes' setting during minimization (src/min.cpp:187)
----------------------------------------------------------
Using INTEL Package without Coprocessor.
Compiler: Intel LLVM C++ 202202.0 / Intel(R) oneAPI DPC++/C++ Compiler 2022.2.1 (2022.2.1.20221020)
SIMD compiler directives: Enabled
Precision: mixed
----------------------------------------------------------
Generated 6 of 6 mixed pair_coeff terms from arithmetic mixing rule
WARNING: Bond/angle/dihedral extent > half of periodic box length (src/domain.cpp:940)
Per MPI rank memory allocation (min/avg/max) = 16.21 | 16.81 | 17.26 Mbytes
   Step          Temp          E_pair         E_mol          TotEng         Press          Volume    
     70402   0.00030789514  36.187488      26.51447       62.70202      -1058.2623      1315.6057    
     70406   0.00030789514  66.326705      235.35227      301.67903      31347.596      1294.3009    
WARNING: Bond/angle/dihedral extent > half of periodic box length (src/domain.cpp:940)
Loop time of 0.0437387 on 40 procs for 4 steps with 68 atoms

107.1% CPU use with 20 MPI tasks x 2 OpenMP threads

Minimization stats:
  Stopping criterion = linesearch alpha is zero
  Energy initial, next-to-last, final = 
      62.7019584564437   61.5030641538132   298.571891522339
  Force two-norm initial, final = 384.3682 3680.485
  Force max component initial, final = 223.44172 2611.875
  Final line search alpha, max atom move = 1.4375666e-13 3.7547442e-10
  Iterations, force evaluations = 4 66

MPI task timing breakdown:
Section |  min time  |  avg time  |  max time  |%varavg| %total
---------------------------------------------------------------
Pair    | 0.0005417  | 0.0064228  | 0.0092024  |   3.3 | 14.68
Bond    | 2.7784e-05 | 0.0021968  | 0.0045729  |   3.5 |  5.02
Neigh   | 0.0063057  | 0.0071767  | 0.0078229  |   0.6 | 16.41
Comm    | 0.011268   | 0.017367   | 0.027194   |   3.6 | 39.71
Output  | 0          | 0          | 0          |   0.0 |  0.00
Modify  | 1.0678e-05 | 0.0016991  | 0.0031342  |   2.3 |  3.88
Other   |            | 0.008876   |            |       | 20.29

Nlocal:            3.4 ave           8 max           0 min
Histogram: 3 3 1 4 0 2 3 1 2 1
Nghost:         6356.8 ave        6748 max        5957 min
Histogram: 2 0 5 1 0 4 4 0 0 4
Neighs:        1127.45 ave        2552 max           0 min
Histogram: 3 3 1 3 1 2 3 1 1 2

Total # of neighbors = 22549
Ave neighs/atom = 331.60294
Ave special neighs/atom = 4.9411765
Neighbor list builds = 17
Dangerous builds = 13
unfix           1
min_style       fire
variable        tempstp    equal $(step)
variable        tempstp    equal 70406
variable        CellMinStep equal ${tempstp}
variable        CellMinStep equal 70406
minimize        1.0e-15 1.0e-15 10000 100000
WARNING: Using 'neigh_modify every 1 delay 0 check yes' setting during minimization (src/min.cpp:187)
----------------------------------------------------------
Using INTEL Package without Coprocessor.
Compiler: Intel LLVM C++ 202202.0 / Intel(R) oneAPI DPC++/C++ Compiler 2022.2.1 (2022.2.1.20221020)
SIMD compiler directives: Enabled
Precision: mixed
----------------------------------------------------------
Generated 6 of 6 mixed pair_coeff terms from arithmetic mixing rule
  Parameters for fire: 
    dmax delaystep dtgrow dtshrink alpha0 alphashrink tmax tmin    integrator halfstepback 
     0.1        20    1.1      0.5   0.25        0.99   10 0.02 eulerimplicit          yes 
WARNING: Bond/angle/dihedral extent > half of periodic box length (src/domain.cpp:940)
Per MPI rank memory allocation (min/avg/max) = 15.08 | 15.69 | 16.14 Mbytes
   Step          Temp          E_pair         E_mol          TotEng         Press     
     70406   0              66.326705      235.35227      301.67897      31347.594    
     80406   4.1734252e-05  35.810038      26.49242       62.302466     -1130.6877    
WARNING: Bond/angle/dihedral extent > half of periodic box length (src/domain.cpp:940)
Loop time of 3.17591 on 40 procs for 10000 steps with 68 atoms

98.6% CPU use with 20 MPI tasks x 2 OpenMP threads

Minimization stats:
  Stopping criterion = max iterations
  Energy initial, next-to-last, final = 
       301.67897017701   62.3023713278776   62.3024579444807
  Force two-norm initial, final = 1212.7913 0.076919361
  Force max component initial, final = 707.03285 0.02263739
  Final line search alpha, max atom move = 0 0
  Iterations, force evaluations = 10000 10537

MPI task timing breakdown:
Section |  min time  |  avg time  |  max time  |%varavg| %total
---------------------------------------------------------------
Pair    | 0.1219     | 0.56846    | 0.82228    |  26.6 | 17.90
Bond    | 0.0019397  | 0.25913    | 0.5539     |  38.0 |  8.16
Neigh   | 0          | 0          | 0          |   0.0 |  0.00
Comm    | 1.1388     | 1.7997     | 2.7906     |  34.8 | 56.67
Output  | 4.5286e-05 | 4.6961e-05 | 6.162e-05  |   0.0 |  0.00
Modify  | 0.0010425  | 0.29857    | 0.41464    |  24.1 |  9.40
Other   |            | 0.25       |            |       |  7.87

Nlocal:            3.4 ave           8 max           0 min
Histogram: 3 3 1 4 0 2 3 1 2 1
Nghost:         6356.8 ave        6748 max        5957 min
Histogram: 2 0 5 1 0 4 4 0 0 4
Neighs:        1127.45 ave        2552 max           0 min
Histogram: 3 3 1 3 1 2 3 1 1 2

Total # of neighbors = 22549
Ave neighs/atom = 331.60294
Ave special neighs/atom = 4.9411765
Neighbor list builds = 0
Dangerous builds = 0
variable        AtomMinStep equal $(step)
variable        AtomMinStep equal 80406
variable        temppe     equal $(pe)
variable        temppe     equal 62.302457944480714502
variable        min_E      equal abs(${prev_E}-${temppe})
variable        min_E      equal abs(62.7019573196878-${temppe})
variable        min_E      equal abs(62.7019573196878-62.3024579444807)
print           "${iter},${CellMinStep},${AtomMinStep},${AtomMinStep},$(pe),${min_E}" append p1_structure.min.csv screen no
if              "${min_E} < ${min_eval}" then "jump SELF break_min"
variable        prev_E     equal ${temppe}
variable        prev_E     equal 62.3024579444807
next            iter
jump            SELF loop_min
min_style       cg
fix             1 all box/relax tri 10000 vmax 0.05
minimize        1.0e-15 1.0e-15 10000 100000
WARNING: Using 'neigh_modify every 1 delay 0 check yes' setting during minimization (src/min.cpp:187)
----------------------------------------------------------
Using INTEL Package without Coprocessor.
Compiler: Intel LLVM C++ 202202.0 / Intel(R) oneAPI DPC++/C++ Compiler 2022.2.1 (2022.2.1.20221020)
SIMD compiler directives: Enabled
Precision: mixed
----------------------------------------------------------
Generated 6 of 6 mixed pair_coeff terms from arithmetic mixing rule
WARNING: Bond/angle/dihedral extent > half of periodic box length (src/domain.cpp:940)
Per MPI rank memory allocation (min/avg/max) = 16.21 | 16.82 | 17.26 Mbytes
   Step          Temp          E_pair         E_mol          TotEng         Press          Volume    
     80406   4.1734252e-05  35.81003       25.501255      61.311294     -1130.6887      1294.3009    
     80446   4.1734252e-05  44.555409      19.696854      64.252272      13190.528      1244.4307    
WARNING: Bond/angle/dihedral extent > half of periodic box length (src/domain.cpp:940)
Loop time of 0.302017 on 40 procs for 40 steps with 68 atoms

102.5% CPU use with 20 MPI tasks x 2 OpenMP threads

Minimization stats:
  Stopping criterion = linesearch alpha is zero
  Energy initial, next-to-last, final = 
      61.3112854743539   56.9792046689031    56.979204668903
  Force two-norm initial, final = 384.98807 870.43359
  Force max component initial, final = 220.23564 624.39265
  Final line search alpha, max atom move = 8.9772751e-14 5.6053446e-11
  Iterations, force evaluations = 40 423

MPI task timing breakdown:
Section |  min time  |  avg time  |  max time  |%varavg| %total
---------------------------------------------------------------
Pair    | 0.0031605  | 0.040132   | 0.057932   |   8.5 | 13.29
Bond    | 0.00020041 | 0.014439   | 0.031598   |   9.0 |  4.78
Neigh   | 0.053964   | 0.061268   | 0.066143   |   1.4 | 20.29
Comm    | 0.078865   | 0.11628    | 0.1817     |   9.3 | 38.50
Output  | 0          | 0          | 0          |   0.0 |  0.00
Modify  | 7.1851e-05 | 0.01129    | 0.020422   |   5.9 |  3.74
Other   |            | 0.05861    |            |       | 19.41

Nlocal:            3.4 ave           8 max           0 min
Histogram: 3 2 2 5 0 2 2 1 1 2
Nghost:         6764.1 ave        7002 max        6516 min
Histogram: 2 1 3 2 2 2 2 2 2 2
Neighs:         1173.8 ave        2776 max           0 min
Histogram: 3 2 2 4 3 0 2 1 1 2

Total # of neighbors = 23476
Ave neighs/atom = 345.23529
Ave special neighs/atom = 4.9411765
Neighbor list builds = 144
Dangerous builds = 91
unfix           1
min_style       fire
variable        tempstp    equal $(step)
variable        tempstp    equal 80446
variable        CellMinStep equal ${tempstp}
variable        CellMinStep equal 80446
minimize        1.0e-15 1.0e-15 10000 100000
WARNING: Using 'neigh_modify every 1 delay 0 check yes' setting during minimization (src/min.cpp:187)
----------------------------------------------------------
Using INTEL Package without Coprocessor.
Compiler: Intel LLVM C++ 202202.0 / Intel(R) oneAPI DPC++/C++ Compiler 2022.2.1 (2022.2.1.20221020)
SIMD compiler directives: Enabled
Precision: mixed
----------------------------------------------------------
Generated 6 of 6 mixed pair_coeff terms from arithmetic mixing rule
  Parameters for fire: 
    dmax delaystep dtgrow dtshrink alpha0 alphashrink tmax tmin    integrator halfstepback 
     0.1        20    1.1      0.5   0.25        0.99   10 0.02 eulerimplicit          yes 
WARNING: Bond/angle/dihedral extent > half of periodic box length (src/domain.cpp:940)
Per MPI rank memory allocation (min/avg/max) = 15.3 | 15.88 | 16.33 Mbytes
   Step          Temp          E_pair         E_mol          TotEng         Press     
     80446   0              44.555409      19.696854      64.252263      13190.527    
     90446   0.0027422073   34.480888      25.410937      59.892372     -1730.4002    
WARNING: Bond/angle/dihedral extent > half of periodic box length (src/domain.cpp:940)
Loop time of 3.39399 on 40 procs for 10000 steps with 68 atoms

99.4% CPU use with 20 MPI tasks x 2 OpenMP threads

Minimization stats:
  Stopping criterion = max iterations
  Energy initial, next-to-last, final = 
      64.2522633482115   59.8918834351241    59.891824091639
  Force two-norm initial, final = 56.777979 0.17522759
  Force max component initial, final = 18.640678 0.037193482
  Final line search alpha, max atom move = 0 0
  Iterations, force evaluations = 10000 10530

MPI task timing breakdown:
Section |  min time  |  avg time  |  max time  |%varavg| %total
---------------------------------------------------------------
Pair    | 0.11833    | 0.58871    | 0.90364    |  29.3 | 17.35
Bond    | 0.001891   | 0.2494     | 0.56502    |  37.4 |  7.35
Neigh   | 0          | 0          | 0          |   0.0 |  0.00
Comm    | 1.1923     | 1.985      | 3.0111     |  35.4 | 58.49
Output  | 4.5126e-05 | 4.6585e-05 | 5.8014e-05 |   0.0 |  0.00
Modify  | 0.00098814 | 0.32162    | 0.49778    |  26.4 |  9.48
Other   |            | 0.2492     |            |       |  7.34

Nlocal:            3.4 ave           8 max           0 min
Histogram: 3 2 2 5 0 2 2 1 1 2
Nghost:         6764.1 ave        7002 max        6516 min
Histogram: 2 1 3 2 2 2 2 2 2 2
Neighs:        1173.85 ave        2778 max           0 min
Histogram: 3 2 2 4 3 0 2 1 1 2

Total # of neighbors = 23477
Ave neighs/atom = 345.25
Ave special neighs/atom = 4.9411765
Neighbor list builds = 0
Dangerous builds = 0
variable        AtomMinStep equal $(step)
variable        AtomMinStep equal 90446
variable        temppe     equal $(pe)
variable        temppe     equal 59.891824091639023209
variable        min_E      equal abs(${prev_E}-${temppe})
variable        min_E      equal abs(62.3024579444807-${temppe})
variable        min_E      equal abs(62.3024579444807-59.891824091639)
print           "${iter},${CellMinStep},${AtomMinStep},${AtomMinStep},$(pe),${min_E}" append p1_structure.min.csv screen no
if              "${min_E} < ${min_eval}" then "jump SELF break_min"
variable        prev_E     equal ${temppe}
variable        prev_E     equal 59.891824091639
next            iter
jump            SELF loop_min
min_style       cg
fix             1 all box/relax tri 10000 vmax 0.05
minimize        1.0e-15 1.0e-15 10000 100000
WARNING: Using 'neigh_modify every 1 delay 0 check yes' setting during minimization (src/min.cpp:187)
----------------------------------------------------------
Using INTEL Package without Coprocessor.
Compiler: Intel LLVM C++ 202202.0 / Intel(R) oneAPI DPC++/C++ Compiler 2022.2.1 (2022.2.1.20221020)
SIMD compiler directives: Enabled
Precision: mixed
----------------------------------------------------------
Generated 6 of 6 mixed pair_coeff terms from arithmetic mixing rule
WARNING: Bond/angle/dihedral extent > half of periodic box length (src/domain.cpp:940)
Per MPI rank memory allocation (min/avg/max) = 16.43 | 17.06 | 17.46 Mbytes
   Step          Temp          E_pair         E_mol          TotEng         Press          Volume    
     90446   0.0027422073   34.480888      25.456978      59.938413     -1730.3766      1244.4307    
     90523   0.0027422073   58.422158      20.472515      78.895221      14045.391      1205.6187    
WARNING: Bond/angle/dihedral extent > half of periodic box length (src/domain.cpp:940)
Loop time of 0.622181 on 40 procs for 77 steps with 68 atoms

102.8% CPU use with 20 MPI tasks x 2 OpenMP threads

Minimization stats:
  Stopping criterion = linesearch alpha is zero
  Energy initial, next-to-last, final = 
      59.9378655778959   55.6054642221509   73.2343350803796
  Force two-norm initial, final = 396.51724 454.43434
  Force max component initial, final = 217.47843 356.48916
  Final line search alpha, max atom move = 1.1129691e-12 3.967614e-10
  Iterations, force evaluations = 77 854

MPI task timing breakdown:
Section |  min time  |  avg time  |  max time  |%varavg| %total
---------------------------------------------------------------
Pair    | 0.0070055  | 0.084176   | 0.12159    |  12.3 | 13.53
Bond    | 0.00040126 | 0.027888   | 0.065048   |  13.2 |  4.48
Neigh   | 0.11227    | 0.12953    | 0.13799    |   2.1 | 20.82
Comm    | 0.15694    | 0.23732    | 0.37419    |  13.5 | 38.14
Output  | 0          | 0          | 0          |   0.0 |  0.00
Modify  | 0.00017493 | 0.022532   | 0.041909   |   8.2 |  3.62
Other   |            | 0.1207     |            |       | 19.41

Nlocal:            3.4 ave           9 max           0 min
Histogram: 3 5 0 2 4 1 2 1 1 1
Nghost:         7151.2 ave        7364 max        6895 min
Histogram: 1 2 1 2 3 1 3 2 4 1
Neighs:         1223.6 ave        3164 max           0 min
Histogram: 3 5 0 2 4 1 1 2 0 2

Total # of neighbors = 24472
Ave neighs/atom = 359.88235
Ave special neighs/atom = 4.9411765
Neighbor list builds = 286
Dangerous builds = 183
unfix           1
min_style       fire
variable        tempstp    equal $(step)
variable        tempstp    equal 90523
variable        CellMinStep equal ${tempstp}
variable        CellMinStep equal 90523
minimize        1.0e-15 1.0e-15 10000 100000
WARNING: Using 'neigh_modify every 1 delay 0 check yes' setting during minimization (src/min.cpp:187)
----------------------------------------------------------
Using INTEL Package without Coprocessor.
Compiler: Intel LLVM C++ 202202.0 / Intel(R) oneAPI DPC++/C++ Compiler 2022.2.1 (2022.2.1.20221020)
SIMD compiler directives: Enabled
Precision: mixed
----------------------------------------------------------
Generated 6 of 6 mixed pair_coeff terms from arithmetic mixing rule
  Parameters for fire: 
    dmax delaystep dtgrow dtshrink alpha0 alphashrink tmax tmin    integrator halfstepback 
     0.1        20    1.1      0.5   0.25        0.99   10 0.02 eulerimplicit          yes 
WARNING: Bond/angle/dihedral extent > half of periodic box length (src/domain.cpp:940)
Per MPI rank memory allocation (min/avg/max) = 15.32 | 15.98 | 16.42 Mbytes
   Step          Temp          E_pair         E_mol          TotEng         Press     
     90523   0              40.793287      20.472515      61.265802      9736.1891    
    100523   6.7798757e-05  33.758479      25.06995       58.828442     -1755.6171    
WARNING: Bond/angle/dihedral extent > half of periodic box length (src/domain.cpp:940)
Loop time of 3.3705 on 40 procs for 10000 steps with 68 atoms

100.1% CPU use with 20 MPI tasks x 2 OpenMP threads

Minimization stats:
  Stopping criterion = max iterations
  Energy initial, next-to-last, final = 
      61.2658024369135   58.8284706601146   58.8284286029543
  Force two-norm initial, final = 45.682614 0.072188732
  Force max component initial, final = 14.013849 0.020570494
  Final line search alpha, max atom move = 0 0
  Iterations, force evaluations = 10000 10532

MPI task timing breakdown:
Section |  min time  |  avg time  |  max time  |%varavg| %total
---------------------------------------------------------------
Pair    | 0.12564    | 0.60169    | 0.95131    |  30.5 | 17.85
Bond    | 0.002037   | 0.23075    | 0.56023    |  39.6 |  6.85
Neigh   | 0          | 0          | 0          |   0.0 |  0.00
Comm    | 1.1706     | 1.9735     | 2.9931     |  36.9 | 58.55
Output  | 0.00016236 | 0.00019778 | 0.00027339 |   0.0 |  0.01
Modify  | 0.0010094  | 0.3224     | 0.46665    |  24.9 |  9.57
Other   |            | 0.242      |            |       |  7.18

Nlocal:            3.4 ave           9 max           0 min
Histogram: 3 5 0 2 4 1 2 1 1 1
Nghost:         7220.3 ave        7322 max        7099 min
Histogram: 3 0 3 1 2 1 1 5 0 4
Neighs:         1221.5 ave        3174 max           0 min
Histogram: 3 5 0 2 4 1 1 2 0 2

Total # of neighbors = 24430
Ave neighs/atom = 359.26471
Ave special neighs/atom = 4.9411765
Neighbor list builds = 0
Dangerous builds = 0
variable        AtomMinStep equal $(step)
variable        AtomMinStep equal 100523
variable        temppe     equal $(pe)
variable        temppe     equal 58.828428602954289772
variable        min_E      equal abs(${prev_E}-${temppe})
variable        min_E      equal abs(59.891824091639-${temppe})
variable        min_E      equal abs(59.891824091639-58.8284286029543)
print           "${iter},${CellMinStep},${AtomMinStep},${AtomMinStep},$(pe),${min_E}" append p1_structure.min.csv screen no
if              "${min_E} < ${min_eval}" then "jump SELF break_min"
variable        prev_E     equal ${temppe}
variable        prev_E     equal 58.8284286029543
next            iter
jump            SELF loop_min
min_style       cg
fix             1 all box/relax tri 10000 vmax 0.05
minimize        1.0e-15 1.0e-15 10000 100000
WARNING: Using 'neigh_modify every 1 delay 0 check yes' setting during minimization (src/min.cpp:187)
----------------------------------------------------------
Using INTEL Package without Coprocessor.
Compiler: Intel LLVM C++ 202202.0 / Intel(R) oneAPI DPC++/C++ Compiler 2022.2.1 (2022.2.1.20221020)
SIMD compiler directives: Enabled
Precision: mixed
----------------------------------------------------------
Generated 6 of 6 mixed pair_coeff terms from arithmetic mixing rule
WARNING: Bond/angle/dihedral extent > half of periodic box length (src/domain.cpp:940)
Per MPI rank memory allocation (min/avg/max) = 16.44 | 17.13 | 17.54 Mbytes
   Step          Temp          E_pair         E_mol          TotEng         Press          Volume    
    100523   6.7798757e-05  50.562957      24.929322      75.492293      2359.4401      1205.6187    
    100524   6.7798757e-05  2667.814       12204.465      14872.279     -54795.697      1205.6187    
WARNING: Bond/angle/dihedral extent > half of periodic box length (src/domain.cpp:940)
Loop time of 0.0358725 on 40 procs for 1 steps with 68 atoms

106.1% CPU use with 20 MPI tasks x 2 OpenMP threads

Minimization stats:
  Stopping criterion = linesearch alpha is zero
  Energy initial, next-to-last, final = 
      75.4922793318353   75.4922793318353     14872.27940462
  Force two-norm initial, final = 366.31576 167371.3
  Force max component initial, final = 208.19601 159397.66
  Final line search alpha, max atom move = 5.5916211e-14 8.9129131e-09
  Iterations, force evaluations = 1 59

MPI task timing breakdown:
Section |  min time  |  avg time  |  max time  |%varavg| %total
---------------------------------------------------------------
Pair    | 0.00077852 | 0.0063946  | 0.0087092  |   2.3 | 17.83
Bond    | 3.932e-05  | 0.0020639  | 0.0045505  |   3.6 |  5.75
Neigh   | 0.0029246  | 0.0032648  | 0.0034799  |   0.3 |  9.10
Comm    | 0.0091795  | 0.014474   | 0.023982   |   3.2 | 40.35
Output  | 0          | 0          | 0          |   0.0 |  0.00
Modify  | 9.271e-06  | 0.0016722  | 0.0030435  |   1.8 |  4.66
Other   |            | 0.008003   |            |       | 22.31

Nlocal:            3.4 ave           7 max           0 min
Histogram: 1 5 2 0 4 2 0 1 1 4
Nghost:        7289.85 ave        7365 max        7145 min
Histogram: 1 0 2 0 4 0 0 8 0 5
Neighs:         1225.5 ave        2635 max           0 min
Histogram: 1 5 2 0 4 2 1 0 1 4

Total # of neighbors = 24510
Ave neighs/atom = 360.44118
Ave special neighs/atom = 4.9411765
Neighbor list builds = 8
Dangerous builds = 6
unfix           1
min_style       fire
variable        tempstp    equal $(step)
variable        tempstp    equal 100524
variable        CellMinStep equal ${tempstp}
variable        CellMinStep equal 100524
minimize        1.0e-15 1.0e-15 10000 100000
WARNING: Using 'neigh_modify every 1 delay 0 check yes' setting during minimization (src/min.cpp:187)
----------------------------------------------------------
Using INTEL Package without Coprocessor.
Compiler: Intel LLVM C++ 202202.0 / Intel(R) oneAPI DPC++/C++ Compiler 2022.2.1 (2022.2.1.20221020)
SIMD compiler directives: Enabled
Precision: mixed
----------------------------------------------------------
Generated 6 of 6 mixed pair_coeff terms from arithmetic mixing rule
  Parameters for fire: 
    dmax delaystep dtgrow dtshrink alpha0 alphashrink tmax tmin    integrator halfstepback 
     0.1        20    1.1      0.5   0.25        0.99   10 0.02 eulerimplicit          yes 
WARNING: Bond/angle/dihedral extent > half of periodic box length (src/domain.cpp:940)
Per MPI rank memory allocation (min/avg/max) = 15.32 | 16 | 16.42 Mbytes
   Step          Temp          E_pair         E_mol          TotEng         Press     
    100524   0              2667.814       12204.465      14872.279     -54795.698    
    110524   2.3349274e-05  48.154596      32.756779      80.91138      -1686.541     
WARNING: Bond/angle/dihedral extent > half of periodic box length (src/domain.cpp:940)
Loop time of 3.49407 on 40 procs for 10000 steps with 68 atoms

100.1% CPU use with 20 MPI tasks x 2 OpenMP threads

Minimization stats:
  Stopping criterion = max iterations
  Energy initial, next-to-last, final = 
        14872.27940462   80.9113563688157   80.9113749465822
  Force two-norm initial, final = 27147.516 0.030696467
  Force max component initial, final = 21476.858 0.0056470788
  Final line search alpha, max atom move = 0 0
  Iterations, force evaluations = 10000 10537

MPI task timing breakdown:
Section |  min time  |  avg time  |  max time  |%varavg| %total
---------------------------------------------------------------
Pair    | 0.14262    | 0.64478    | 0.8918     |  24.1 | 18.45
Bond    | 0.0034936  | 0.24629    | 0.55965    |  39.5 |  7.05
Neigh   | 0.0012532  | 0.0013884  | 0.0014509  |   0.1 |  0.04
Comm    | 1.3356     | 1.9884     | 3.0866     |  30.9 | 56.91
Output  | 3.0437e-05 | 3.1332e-05 | 3.968e-05  |   0.0 |  0.00
Modify  | 0.0013067  | 0.36418    | 0.49872    |  17.0 | 10.42
Other   |            | 0.249      |            |       |  7.13

Nlocal:            3.4 ave           8 max           0 min
Histogram: 1 5 3 3 0 2 1 1 3 1
Nghost:        7272.35 ave        7351 max        7145 min
Histogram: 2 1 1 0 2 2 0 8 0 4
Neighs:        1225.35 ave        2827 max           0 min
Histogram: 1 5 3 3 1 1 1 1 2 2

Total # of neighbors = 24507
Ave neighs/atom = 360.39706
Ave special neighs/atom = 4.9411765
Neighbor list builds = 3
Dangerous builds = 0
variable        AtomMinStep equal $(step)
variable        AtomMinStep equal 110524
variable        temppe     equal $(pe)
variable        temppe     equal 80.911374946582213852
variable        min_E      equal abs(${prev_E}-${temppe})
variable        min_E      equal abs(58.8284286029543-${temppe})
variable        min_E      equal abs(58.8284286029543-80.9113749465822)
print           "${iter},${CellMinStep},${AtomMinStep},${AtomMinStep},$(pe),${min_E}" append p1_structure.min.csv screen no
if              "${min_E} < ${min_eval}" then "jump SELF break_min"
variable        prev_E     equal ${temppe}
variable        prev_E     equal 80.9113749465822
next            iter
jump            SELF loop_min
min_style       cg
fix             1 all box/relax tri 10000 vmax 0.05
minimize        1.0e-15 1.0e-15 10000 100000
WARNING: Using 'neigh_modify every 1 delay 0 check yes' setting during minimization (src/min.cpp:187)
----------------------------------------------------------
Using INTEL Package without Coprocessor.
Compiler: Intel LLVM C++ 202202.0 / Intel(R) oneAPI DPC++/C++ Compiler 2022.2.1 (2022.2.1.20221020)
SIMD compiler directives: Enabled
Precision: mixed
----------------------------------------------------------
Generated 6 of 6 mixed pair_coeff terms from arithmetic mixing rule
WARNING: Bond/angle/dihedral extent > half of periodic box length (src/domain.cpp:940)
Per MPI rank memory allocation (min/avg/max) = 16.44 | 17.13 | 17.54 Mbytes
   Step          Temp          E_pair         E_mol          TotEng         Press          Volume    
    110524   2.3349274e-05  47.918756      32.345336      80.264097     -1900.5685      1205.6187    
    110525   2.3349274e-05  32.751001      2839.3879      2872.1389     -181296.05      1205.6187    
WARNING: Bond/angle/dihedral extent > half of periodic box length (src/domain.cpp:940)
Loop time of 0.0378031 on 40 procs for 1 steps with 68 atoms

102.0% CPU use with 20 MPI tasks x 2 OpenMP threads

Minimization stats:
  Stopping criterion = linesearch alpha is zero
  Energy initial, next-to-last, final = 
        80.26409222745     80.26409222745   2872.13890006402
  Force two-norm initial, final = 729.99921 13069.821
  Force max component initial, final = 503.18384 8390.0202
  Final line search alpha, max atom move = 2.3135743e-14 1.9410935e-10
  Iterations, force evaluations = 1 63

MPI task timing breakdown:
Section |  min time  |  avg time  |  max time  |%varavg| %total
---------------------------------------------------------------
Pair    | 0.00085011 | 0.0071411  | 0.010358   |   2.4 | 18.89
Bond    | 2.9304e-05 | 0.0021456  | 0.0047047  |   3.7 |  5.68
Neigh   | 0.0017555  | 0.0019994  | 0.0021285  |   0.3 |  5.29
Comm    | 0.0095406  | 0.016506   | 0.026787   |   3.1 | 43.66
Output  | 0          | 0          | 0          |   0.0 |  0.00
Modify  | 9.78e-06   | 0.0018509  | 0.0033009  |   1.9 |  4.90
Other   |            | 0.00816    |            |       | 21.59

Nlocal:            3.4 ave           8 max           0 min
Histogram: 1 4 3 4 0 2 1 3 1 1
Nghost:        7262.85 ave        7351 max        7128 min
Histogram: 2 2 1 0 3 0 1 6 0 5
Neighs:        1227.55 ave        2859 max           0 min
Histogram: 1 4 3 4 1 1 1 3 0 2

Total # of neighbors = 24551
Ave neighs/atom = 361.04412
Ave special neighs/atom = 4.9411765
Neighbor list builds = 4
Dangerous builds = 3
unfix           1
min_style       fire
variable        tempstp    equal $(step)
variable        tempstp    equal 110525
variable        CellMinStep equal ${tempstp}
variable        CellMinStep equal 110525
minimize        1.0e-15 1.0e-15 10000 100000
WARNING: Using 'neigh_modify every 1 delay 0 check yes' setting during minimization (src/min.cpp:187)
----------------------------------------------------------
Using INTEL Package without Coprocessor.
Compiler: Intel LLVM C++ 202202.0 / Intel(R) oneAPI DPC++/C++ Compiler 2022.2.1 (2022.2.1.20221020)
SIMD compiler directives: Enabled
Precision: mixed
----------------------------------------------------------
Generated 6 of 6 mixed pair_coeff terms from arithmetic mixing rule
  Parameters for fire: 
    dmax delaystep dtgrow dtshrink alpha0 alphashrink tmax tmin    integrator halfstepback 
     0.1        20    1.1      0.5   0.25        0.99   10 0.02 eulerimplicit          yes 
WARNING: Bond/angle/dihedral extent > half of periodic box length (src/domain.cpp:940)
Per MPI rank memory allocation (min/avg/max) = 15.32 | 16.01 | 16.42 Mbytes
   Step          Temp          E_pair         E_mol          TotEng         Press     
    110525   0              32.751001      2839.3879      2872.1389     -181296.05    
    120525   5.7891567e-05  43.51442       27.100128      70.614559     -1666.8656    
WARNING: Bond/angle/dihedral extent > half of periodic box length (src/domain.cpp:940)
Loop time of 3.58703 on 40 procs for 10000 steps with 68 atoms

99.3% CPU use with 20 MPI tasks x 2 OpenMP threads

Minimization stats:
  Stopping criterion = max iterations
  Energy initial, next-to-last, final = 
      2872.13890006402   70.6144885872551   70.6145473043227
  Force two-norm initial, final = 3604.3005 0.051551524
  Force max component initial, final = 2856.1536 0.027449335
  Final line search alpha, max atom move = 0 0
  Iterations, force evaluations = 10000 10537

MPI task timing breakdown:
Section |  min time  |  avg time  |  max time  |%varavg| %total
---------------------------------------------------------------
Pair    | 0.13891    | 0.65921    | 0.90098    |  22.7 | 18.38
Bond    | 0.0033684  | 0.2628     | 0.5573     |  39.9 |  7.33
Neigh   | 0.00080245 | 0.00093843 | 0.0010038  |   0.0 |  0.03
Comm    | 1.3921     | 2.0344     | 3.1864     |  30.4 | 56.72
Output  | 4.7534e-05 | 4.8563e-05 | 5.5522e-05 |   0.0 |  0.00
Modify  | 0.0011896  | 0.38174    | 0.54803    |  18.4 | 10.64
Other   |            | 0.2479     |            |       |  6.91

Nlocal:            3.4 ave           8 max           0 min
Histogram: 1 4 3 4 0 2 1 3 1 1
Nghost:        7261.85 ave        7337 max        7130 min
Histogram: 1 1 2 0 4 0 0 7 0 5
Neighs:         1226.9 ave        2844 max           0 min
Histogram: 1 4 3 4 1 1 1 3 0 2

Total # of neighbors = 24538
Ave neighs/atom = 360.85294
Ave special neighs/atom = 4.9411765
Neighbor list builds = 2
Dangerous builds = 0
variable        AtomMinStep equal $(step)
variable        AtomMinStep equal 120525
variable        temppe     equal $(pe)
variable        temppe     equal 70.614547304322712762
variable        min_E      equal abs(${prev_E}-${temppe})
variable        min_E      equal abs(80.9113749465822-${temppe})
variable        min_E      equal abs(80.9113749465822-70.6145473043227)
print           "${iter},${CellMinStep},${AtomMinStep},${AtomMinStep},$(pe),${min_E}" append p1_structure.min.csv screen no
if              "${min_E} < ${min_eval}" then "jump SELF break_min"
variable        prev_E     equal ${temppe}
variable        prev_E     equal 70.6145473043227
next            iter
jump            SELF loop_min
min_style       cg
fix             1 all box/relax tri 10000 vmax 0.05
minimize        1.0e-15 1.0e-15 10000 100000
WARNING: Using 'neigh_modify every 1 delay 0 check yes' setting during minimization (src/min.cpp:187)
----------------------------------------------------------
Using INTEL Package without Coprocessor.
Compiler: Intel LLVM C++ 202202.0 / Intel(R) oneAPI DPC++/C++ Compiler 2022.2.1 (2022.2.1.20221020)
SIMD compiler directives: Enabled
Precision: mixed
----------------------------------------------------------
Generated 6 of 6 mixed pair_coeff terms from arithmetic mixing rule
WARNING: Bond/angle/dihedral extent > half of periodic box length (src/domain.cpp:940)
Per MPI rank memory allocation (min/avg/max) = 16.44 | 17.13 | 17.54 Mbytes
   Step          Temp          E_pair         E_mol          TotEng         Press          Volume    
    120525   5.7891567e-05  43.51442       27.100128      70.614559     -1666.8656      1205.6187    
    120772   5.7891567e-05  51.335227      21.930204      73.265443      9495.7177      1133.8123    
WARNING: Bond/angle/dihedral extent > half of periodic box length (src/domain.cpp:940)
Loop time of 2.1388 on 40 procs for 247 steps with 68 atoms

102.3% CPU use with 20 MPI tasks x 2 OpenMP threads

Minimization stats:
  Stopping criterion = linesearch alpha is zero
  Energy initial, next-to-last, final = 
      70.6145472946819   62.7932070302255   62.7932070302254
  Force two-norm initial, final = 383.37538 149.79421
  Force max component initial, final = 209.32291 124.992
  Final line search alpha, max atom move = 5.5520262e-12 6.9395884e-10
  Iterations, force evaluations = 247 2573

MPI task timing breakdown:
Section |  min time  |  avg time  |  max time  |%varavg| %total
[...]
if              "${min_E} < ${min_eval}" then "jump SELF break_min"
variable        prev_E     equal ${temppe}
variable        prev_E     equal 265.259603935331
next            iter
jump            SELF loop_min
min_style       cg
fix             1 all box/relax tri 10000 vmax 0.05
minimize        1.0e-15 1.0e-15 10000 100000
----------------------------------------------------------
Using INTEL Package without Coprocessor.
Compiler: Intel LLVM C++ 202202.0 / Intel(R) oneAPI DPC++/C++ Compiler 2022.2.1 (2022.2.1.20221020)
SIMD compiler directives: Enabled
Precision: mixed
----------------------------------------------------------
Generated 6 of 6 mixed pair_coeff terms from arithmetic mixing rule
Per MPI rank memory allocation (min/avg/max) = 30.81 | 31.37 | 31.63 Mbytes
   Step          Temp          E_pair         E_mol          TotEng         Press          Volume    
   1142545   5.0533196e-10  169.65227      95.60733       265.2596       10744.3        904.34907    
   1142599   5.0533196e-10  169.16781      96.016246      265.18406      9983.2563      904.58952    
Loop time of 0.894717 on 40 procs for 54 steps with 68 atoms

107.7% CPU use with 20 MPI tasks x 2 OpenMP threads

Minimization stats:
  Stopping criterion = linesearch alpha is zero
  Energy initial, next-to-last, final = 
      265.259601133335   265.219123111596   265.219123111596
  Force two-norm initial, final = 530.867 72.225512
  Force max component initial, final = 519.75882 65.260812
  Final line search alpha, max atom move = 1.7862563e-12 1.1657253e-10
  Iterations, force evaluations = 54 926

MPI task timing breakdown:
Section |  min time  |  avg time  |  max time  |%varavg| %total
---------------------------------------------------------------
Pair    | 0.020092   | 0.14578    | 0.19896    |   9.4 | 16.29
Bond    | 0.00077975 | 0.033958   | 0.082403   |  15.3 |  3.80
Neigh   | 0.14905    | 0.1611     | 0.16765    |   1.4 | 18.01
Comm    | 0.23975    | 0.35512    | 0.56752    |  12.3 | 39.69
Output  | 0          | 0          | 0          |   0.0 |  0.00
Modify  | 0.00029836 | 0.040619   | 0.064359   |   8.0 |  4.54
Other   |            | 0.1581     |            |       | 17.67

Nlocal:            3.4 ave           8 max           0 min
Histogram: 1 2 5 2 0 5 2 2 0 1
Nghost:        11408.6 ave       11911 max       11042 min
Histogram: 2 3 3 2 1 4 1 1 2 1
Neighs:        1632.25 ave        3850 max           0 min
Histogram: 1 2 5 2 3 2 2 2 0 1

Total # of neighbors = 32645
Ave neighs/atom = 480.07353
Ave special neighs/atom = 4.9411765
Neighbor list builds = 207
Dangerous builds = 122
unfix           1
min_style       fire
variable        tempstp    equal $(step)
variable        tempstp    equal 1142599
variable        CellMinStep equal ${tempstp}
variable        CellMinStep equal 1142599
minimize        1.0e-15 1.0e-15 10000 100000
----------------------------------------------------------
Using INTEL Package without Coprocessor.
Compiler: Intel LLVM C++ 202202.0 / Intel(R) oneAPI DPC++/C++ Compiler 2022.2.1 (2022.2.1.20221020)
SIMD compiler directives: Enabled
Precision: mixed
----------------------------------------------------------
Generated 6 of 6 mixed pair_coeff terms from arithmetic mixing rule
  Parameters for fire: 
    dmax delaystep dtgrow dtshrink alpha0 alphashrink tmax tmin    integrator halfstepback 
     0.1        20    1.1      0.5   0.25        0.99   10 0.02 eulerimplicit          yes 
Per MPI rank memory allocation (min/avg/max) = 28.56 | 29.12 | 29.38 Mbytes
   Step          Temp          E_pair         E_mol          TotEng         Press     
   1142599   0              169.16781      96.016246      265.18406      9983.2563    
   1152599   9.6148413e-12  169.52889      95.620091      265.14898      10649.385    
Loop time of 6.08618 on 40 procs for 10000 steps with 68 atoms

104.1% CPU use with 20 MPI tasks x 2 OpenMP threads

Minimization stats:
  Stopping criterion = max iterations
  Energy initial, next-to-last, final = 
       265.18405677673   265.148992729009   265.148976383179
  Force two-norm initial, final = 7.9139518 0.015145393
  Force max component initial, final = 2.4237176 0.0093168029
  Final line search alpha, max atom move = 0 0
  Iterations, force evaluations = 10000 14182

MPI task timing breakdown:
Section |  min time  |  avg time  |  max time  |%varavg| %total
---------------------------------------------------------------
Pair    | 0.27824    | 1.2652     | 1.7423     |  26.5 | 20.79
Bond    | 0.0037608  | 0.34023    | 0.73187    |  45.4 |  5.59
Neigh   | 0          | 0          | 0          |   0.0 |  0.00
Comm    | 2.2667     | 3.3474     | 5.4924     |  38.0 | 55.00
Output  | 5.5098e-05 | 5.6115e-05 | 6.3832e-05 |   0.0 |  0.00
Modify  | 0.0021191  | 0.81736    | 1.0733     |  24.3 | 13.43
Other   |            | 0.3159     |            |       |  5.19

Nlocal:            3.4 ave           8 max           0 min
Histogram: 1 2 5 2 0 5 2 2 0 1
Nghost:        11397.9 ave       11863 max       11042 min
Histogram: 2 4 3 2 1 2 2 1 1 2
Neighs:         1631.1 ave        3850 max           0 min
Histogram: 1 2 5 2 2 3 2 2 0 1

Total # of neighbors = 32622
Ave neighs/atom = 479.73529
Ave special neighs/atom = 4.9411765
Neighbor list builds = 0
Dangerous builds = 0
variable        AtomMinStep equal $(step)
variable        AtomMinStep equal 1152599
variable        temppe     equal $(pe)
variable        temppe     equal 265.1489763831788764
variable        min_E      equal abs(${prev_E}-${temppe})
variable        min_E      equal abs(265.259603935331-${temppe})
variable        min_E      equal abs(265.259603935331-265.148976383179)
print           "${iter},${CellMinStep},${AtomMinStep},${AtomMinStep},$(pe),${min_E}" append p1_structure.min.csv screen no
if              "${min_E} < ${min_eval}" then "jump SELF break_min"
variable        prev_E     equal ${temppe}
variable        prev_E     equal 265.148976383179
next            iter
jump            SELF loop_min
min_style       cg
fix             1 all box/relax tri 10000 vmax 0.05
minimize        1.0e-15 1.0e-15 10000 100000
----------------------------------------------------------
Using INTEL Package without Coprocessor.
Compiler: Intel LLVM C++ 202202.0 / Intel(R) oneAPI DPC++/C++ Compiler 2022.2.1 (2022.2.1.20221020)
SIMD compiler directives: Enabled
Precision: mixed
----------------------------------------------------------
Generated 6 of 6 mixed pair_coeff terms from arithmetic mixing rule
Per MPI rank memory allocation (min/avg/max) = 30.81 | 31.37 | 31.63 Mbytes
   Step          Temp          E_pair         E_mol          TotEng         Press          Volume    
   1152599   9.6148413e-12  169.52889      95.620091      265.14898      10649.385      904.58952    
   1152614   9.6148413e-12  169.38679      95.713564      265.10035      10270.823      904.71127    
Loop time of 0.257577 on 40 procs for 15 steps with 68 atoms

107.1% CPU use with 20 MPI tasks x 2 OpenMP threads

Minimization stats:
  Stopping criterion = linesearch alpha is zero
  Energy initial, next-to-last, final = 
      265.148976384575   265.118107369788   265.118107369788
  Force two-norm initial, final = 508.1545 34.46515
  Force max component initial, final = 496.43056 25.700961
  Final line search alpha, max atom move = 7.4939112e-12 1.9260072e-10
  Iterations, force evaluations = 15 262

MPI task timing breakdown:
Section |  min time  |  avg time  |  max time  |%varavg| %total
---------------------------------------------------------------
Pair    | 0.0055505  | 0.041941   | 0.059863   |   5.3 | 16.28
Bond    | 0.00020306 | 0.010543   | 0.024287   |   8.8 |  4.09
Neigh   | 0.037851   | 0.043343   | 0.045428   |   0.9 | 16.83
Comm    | 0.067908   | 0.10454    | 0.16584    |   7.0 | 40.59
Output  | 0          | 0          | 0          |   0.0 |  0.00
Modify  | 7.4864e-05 | 0.011701   | 0.0217     |   4.6 |  4.54
Other   |            | 0.04551    |            |       | 17.67

Nlocal:            3.4 ave           8 max           0 min
Histogram: 1 2 5 2 0 5 2 2 0 1
Nghost:        11397.9 ave       11863 max       11042 min
Histogram: 2 4 3 2 1 2 2 1 1 2
Neighs:        1631.05 ave        3845 max           0 min
Histogram: 1 2 5 2 2 3 2 2 0 1

Total # of neighbors = 32621
Ave neighs/atom = 479.72059
Ave special neighs/atom = 4.9411765
Neighbor list builds = 56
Dangerous builds = 35
unfix           1
min_style       fire
variable        tempstp    equal $(step)
variable        tempstp    equal 1152614
variable        CellMinStep equal ${tempstp}
variable        CellMinStep equal 1152614
minimize        1.0e-15 1.0e-15 10000 100000
----------------------------------------------------------
Using INTEL Package without Coprocessor.
Compiler: Intel LLVM C++ 202202.0 / Intel(R) oneAPI DPC++/C++ Compiler 2022.2.1 (2022.2.1.20221020)
SIMD compiler directives: Enabled
Precision: mixed
----------------------------------------------------------
Generated 6 of 6 mixed pair_coeff terms from arithmetic mixing rule
  Parameters for fire: 
    dmax delaystep dtgrow dtshrink alpha0 alphashrink tmax tmin    integrator halfstepback 
     0.1        20    1.1      0.5   0.25        0.99   10 0.02 eulerimplicit          yes 
Per MPI rank memory allocation (min/avg/max) = 28.56 | 29.12 | 29.38 Mbytes
   Step          Temp          E_pair         E_mol          TotEng         Press     
   1152614   0              169.38679      95.713564      265.10035      10270.823    
   1161072   9.8640449e-12  169.4354       95.630487      265.06589      10583.065    
Loop time of 4.84201 on 40 procs for 8458 steps with 68 atoms

103.1% CPU use with 20 MPI tasks x 2 OpenMP threads

Minimization stats:
  Stopping criterion = max iterations with v.f negative
  Energy initial, next-to-last, final = 
      265.100350116046   265.065759797624   265.065889037346
  Force two-norm initial, final = 7.8635005 0.01384055
  Force max component initial, final = 2.2401207 0.0086814764
  Final line search alpha, max atom move = 0 0
  Iterations, force evaluations = 8458 11404

MPI task timing breakdown:
Section |  min time  |  avg time  |  max time  |%varavg| %total
---------------------------------------------------------------
Pair    | 0.2721     | 1.0531     | 1.4486     |  23.8 | 21.75
Bond    | 0.0047704  | 0.28488    | 0.58297    |  41.0 |  5.88
Neigh   | 0          | 0          | 0          |   0.0 |  0.00
Comm    | 1.707      | 2.601      | 4.3068     |  35.0 | 53.72
Output  | 0          | 0          | 0          |   0.0 |  0.00
Modify  | 0.0021495  | 0.64687    | 0.84809    |  20.5 | 13.36
Other   |            | 0.2561     |            |       |  5.29

Nlocal:            3.4 ave           8 max           0 min
Histogram: 1 2 5 2 0 5 2 2 0 1
Nghost:        11397.9 ave       11863 max       11042 min
Histogram: 2 4 3 2 1 2 2 1 1 2
Neighs:        1630.95 ave        3846 max           0 min
Histogram: 1 2 5 2 2 3 2 2 0 1

Total # of neighbors = 32619
Ave neighs/atom = 479.69118
Ave special neighs/atom = 4.9411765
Neighbor list builds = 0
Dangerous builds = 0
variable        AtomMinStep equal $(step)
variable        AtomMinStep equal 1161072
variable        temppe     equal $(pe)
variable        temppe     equal 265.06588903734603946
variable        min_E      equal abs(${prev_E}-${temppe})
variable        min_E      equal abs(265.148976383179-${temppe})
variable        min_E      equal abs(265.148976383179-265.065889037346)
print           "${iter},${CellMinStep},${AtomMinStep},${AtomMinStep},$(pe),${min_E}" append p1_structure.min.csv screen no
if              "${min_E} < ${min_eval}" then "jump SELF break_min"
variable        prev_E     equal ${temppe}
variable        prev_E     equal 265.065889037346
next            iter
jump            SELF loop_min
min_style       cg
fix             1 all box/relax tri 10000 vmax 0.05
minimize        1.0e-15 1.0e-15 10000 100000
----------------------------------------------------------
Using INTEL Package without Coprocessor.
Compiler: Intel LLVM C++ 202202.0 / Intel(R) oneAPI DPC++/C++ Compiler 2022.2.1 (2022.2.1.20221020)
SIMD compiler directives: Enabled
Precision: mixed
----------------------------------------------------------
Generated 6 of 6 mixed pair_coeff terms from arithmetic mixing rule
Per MPI rank memory allocation (min/avg/max) = 30.81 | 31.37 | 31.63 Mbytes
   Step          Temp          E_pair         E_mol          TotEng         Press          Volume    
   1161072   9.8640449e-12  169.4354       95.630487      265.06589      10583.065      904.71127    
   1161105   9.8640449e-12  169.0977       95.909939      265.00764      9991.9703      904.88493    
Loop time of 0.565813 on 40 procs for 33 steps with 68 atoms

104.7% CPU use with 20 MPI tasks x 2 OpenMP threads

Minimization stats:
  Stopping criterion = linesearch alpha is zero
  Energy initial, next-to-last, final = 
      265.065889037345   265.032961013921   265.032961013921
  Force two-norm initial, final = 488.36331 55.608732
  Force max component initial, final = 476.0805 46.540094
  Final line search alpha, max atom move = 4.0022376e-12 1.8626451e-10
  Iterations, force evaluations = 33 583

MPI task timing breakdown:
Section |  min time  |  avg time  |  max time  |%varavg| %total
---------------------------------------------------------------
Pair    | 0.0083806  | 0.096684   | 0.12488    |   8.2 | 17.09
Bond    | 0.00033248 | 0.026648   | 0.051951   |  12.9 |  4.71
Neigh   | 0.086282   | 0.093109   | 0.098181   |   1.3 | 16.46
Comm    | 0.15415    | 0.22086    | 0.36291    |  11.2 | 39.03
Output  | 0          | 0          | 0          |   0.0 |  0.00
Modify  | 0.00011531 | 0.027701   | 0.044992   |   7.1 |  4.90
Other   |            | 0.1008     |            |       | 17.82

Nlocal:            3.4 ave           8 max           0 min
Histogram: 1 2 5 2 0 5 2 2 0 1
Nghost:        11291.5 ave       11780 max       10780 min
Histogram: 1 1 2 3 3 3 2 2 1 2
Neighs:         1631.4 ave        3834 max           0 min
Histogram: 1 2 5 2 2 3 2 2 0 1

Total # of neighbors = 32628
Ave neighs/atom = 479.82353
Ave special neighs/atom = 4.9411765
Neighbor list builds = 121
Dangerous builds = 71
unfix           1
min_style       fire
variable        tempstp    equal $(step)
variable        tempstp    equal 1161105
variable        CellMinStep equal ${tempstp}
variable        CellMinStep equal 1161105
minimize        1.0e-15 1.0e-15 10000 100000
----------------------------------------------------------
Using INTEL Package without Coprocessor.
Compiler: Intel LLVM C++ 202202.0 / Intel(R) oneAPI DPC++/C++ Compiler 2022.2.1 (2022.2.1.20221020)
SIMD compiler directives: Enabled
Precision: mixed
----------------------------------------------------------
Generated 6 of 6 mixed pair_coeff terms from arithmetic mixing rule
  Parameters for fire: 
    dmax delaystep dtgrow dtshrink alpha0 alphashrink tmax tmin    integrator halfstepback 
     0.1        20    1.1      0.5   0.25        0.99   10 0.02 eulerimplicit          yes 
Per MPI rank memory allocation (min/avg/max) = 28.56 | 29.12 | 29.38 Mbytes
   Step          Temp          E_pair         E_mol          TotEng         Press     
   1161105   0              169.0977       95.909939      265.00764      9991.9703    
   1171105   6.1496881e-12  169.33774      95.641663      264.9794       10507.658    
Loop time of 5.10485 on 40 procs for 10000 steps with 68 atoms

102.5% CPU use with 20 MPI tasks x 2 OpenMP threads

Minimization stats:
  Stopping criterion = max iterations
  Energy initial, next-to-last, final = 
      265.007635012672   264.979306170713   264.979402158314
  Force two-norm initial, final = 6.8676798 0.013160077
  Force max component initial, final = 2.0380164 0.0074253084
  Final line search alpha, max atom move = 0 0
  Iterations, force evaluations = 10000 11770

MPI task timing breakdown:
Section |  min time  |  avg time  |  max time  |%varavg| %total
---------------------------------------------------------------
Pair    | 0.22953    | 1.0951     | 1.4727     |  25.0 | 21.45
Bond    | 0.0031103  | 0.30655    | 0.61472    |  42.6 |  6.01
Neigh   | 0          | 0          | 0          |   0.0 |  0.00
Comm    | 1.8642     | 2.7181     | 4.5796     |  37.4 | 53.25
Output  | 4.6612e-05 | 4.7581e-05 | 5.6979e-05 |   0.0 |  0.00
Modify  | 0.0018973  | 0.68718    | 0.86914    |  21.6 | 13.46
Other   |            | 0.2979     |            |       |  5.84

Nlocal:            3.4 ave           8 max           0 min
Histogram: 1 2 5 2 0 5 2 2 0 1
Nghost:        11397.9 ave       11863 max       11042 min
Histogram: 2 4 3 2 1 2 2 1 1 2
Neighs:        1631.35 ave        3849 max           0 min
Histogram: 1 2 5 2 2 3 2 2 0 1

Total # of neighbors = 32627
Ave neighs/atom = 479.80882
Ave special neighs/atom = 4.9411765
Neighbor list builds = 0
Dangerous builds = 0
variable        AtomMinStep equal $(step)
variable        AtomMinStep equal 1171105
variable        temppe     equal $(pe)
variable        temppe     equal 264.97940215831374644
variable        min_E      equal abs(${prev_E}-${temppe})
variable        min_E      equal abs(265.065889037346-${temppe})
variable        min_E      equal abs(265.065889037346-264.979402158314)
print           "${iter},${CellMinStep},${AtomMinStep},${AtomMinStep},$(pe),${min_E}" append p1_structure.min.csv screen no
if              "${min_E} < ${min_eval}" then "jump SELF break_min"
variable        prev_E     equal ${temppe}
variable        prev_E     equal 264.979402158314
next            iter
jump            SELF loop_min
min_style       cg
fix             1 all box/relax tri 10000 vmax 0.05
minimize        1.0e-15 1.0e-15 10000 100000
----------------------------------------------------------
Using INTEL Package without Coprocessor.
Compiler: Intel LLVM C++ 202202.0 / Intel(R) oneAPI DPC++/C++ Compiler 2022.2.1 (2022.2.1.20221020)
SIMD compiler directives: Enabled
Precision: mixed
----------------------------------------------------------
Generated 6 of 6 mixed pair_coeff terms from arithmetic mixing rule
Per MPI rank memory allocation (min/avg/max) = 30.81 | 31.37 | 31.63 Mbytes
   Step          Temp          E_pair         E_mol          TotEng         Press          Volume    
   1171105   6.1496881e-12  169.33775      94.771434      264.10918      10507.657      904.88493    
   1171108   6.1496881e-12  40486028       10682.52       40496711       1.2271017e+10  904.89724    
Loop time of 0.0569581 on 40 procs for 3 steps with 68 atoms

104.5% CPU use with 20 MPI tasks x 2 OpenMP threads

Minimization stats:
  Stopping criterion = linesearch alpha is zero
  Energy initial, next-to-last, final = 
      264.109179405127   264.087369185037   40496710.7065483
  Force two-norm initial, final = 469.48801 3.5582093e+09
  Force max component initial, final = 456.764 3.2611612e+09
  Final line search alpha, max atom move = 1.124982e-12 0.0036687478
  Iterations, force evaluations = 3 50

MPI task timing breakdown:
Section |  min time  |  avg time  |  max time  |%varavg| %total
---------------------------------------------------------------
Pair    | 0.00062203 | 0.0083069  | 0.011046   |   2.3 | 14.58
Bond    | 3.6268e-05 | 0.0023529  | 0.0046969  |   3.7 |  4.13
Neigh   | 0.011974   | 0.013581   | 0.014415   |   0.6 | 23.84
Comm    | 0.015626   | 0.020807   | 0.033349   |   3.0 | 36.53
Output  | 0          | 0          | 0          |   0.0 |  0.00
Modify  | 9.921e-06  | 0.0024572  | 0.0042026  |   2.1 |  4.31
Other   |            | 0.009453   |            |       | 16.60

Nlocal:            3.4 ave           8 max           0 min
Histogram: 1 2 5 2 0 5 2 2 0 1
Nghost:          11383 ave       11863 max       10978 min
Histogram: 2 2 3 2 2 3 1 2 1 2
Neighs:        1631.15 ave        3840 max           0 min
Histogram: 1 2 5 2 2 3 2 2 0 1

Total # of neighbors = 32623
Ave neighs/atom = 479.75
Ave special neighs/atom = 4.9411765
Neighbor list builds = 18
Dangerous builds = 14
