68
 Atoms. Timestep: 0
C 27.7191 5.26078 1.25086
C 29.0197 3.93014 2.79206
C 28.9531 4.90153 1.79327
C 26.552 4.64852 1.7071
C 27.8523 3.31812 3.24845
C 26.6184 3.67733 2.70609
C 16.1855 0.949167 3.20796
C 19.5252 5.80264 4.74916
C 17.4194 0.589917 3.75037
C 15.0183 0.336903 3.6642
C 18.3578 5.19061 5.20555
C 17.1239 5.54982 4.66319
C 8.18591 4.24408 0.355075
C 9.4865 2.91344 1.89628
C 9.41986 3.88483 0.897488
C 7.01877 3.63181 0.811314
C 8.31911 2.30141 2.35267
C 7.08523 2.66062 1.81031
C 25.1757 4.46558 3.86311
C 26.4763 3.13494 5.40432
C 26.4097 4.10632 4.40553
C 24.0086 3.85331 4.31935
C 25.6501 2.25412 0.403454
C 24.075 2.88212 5.31835
H 29.869 5.37273 1.44432
H 27.8765 2.55771 4.02606
H 18.3354 1.06111 3.40142
H 18.7231 4.16141 0.525906
H 10.3358 4.35602 0.548537
H 8.34332 1.541 3.13027
H 27.3256 4.57752 4.05658
H 25.6743 1.49371 1.18106
N 25.6743 0.077198 0.230831
N 30.2757 3.56377 3.34402
N 25.4871 3.04061 3.19164
N 24.6006 2.5417 3.57244
N 16.1798 1.94969 2.18793
N 20.7811 5.43626 5.30112
N 15.9926 4.9131 5.14874
N 15.4472 4.1454 0.072288
N 7.83907 5.5134 4.7923
N 10.7425 2.54707 2.44823
N 5.95394 2.02391 2.29586
N 5.06738 1.525 2.67666
N 25.17 5.4661 2.84308
N 28.0734 2.49977 0.499019
N 23.2849 1.9766 0.346644
N 22.3983 1.47769 0.727443
O 25.41 4.97341 1.21268
O 26.4228 0.846743 5.33389
O 24.2386 0.684028 5.18649
O 30.3131 2.68725 4.24103
O 31.3138 4.12619 2.91922
O 13.8764 0.661797 3.16978
O 17.2695 2.45044 1.83373
O 15.0852 2.28772 1.68634
O 21.1597 4.29094 0.74088
O 21.8193 5.99869 4.87632
O 5.87679 3.95671 0.316892
O 8.92873 6.01415 4.4381
O 6.74451 5.85143 4.29071
O 10.7799 1.67054 3.34525
O 11.7806 3.10949 2.02344
O 22.8666 4.17821 3.82493
O 26.2597 5.96685 2.48889
O 24.0755 5.80413 2.34149
O 28.1109 1.62324 1.39603
O 29.1116 3.06219 0.074225
68
 Atoms. Timestep: 49
C 18.027 5.37977 1.19355
C 19.3533 4.01426 2.80257
C 19.2715 4.99822 1.78106
C 16.8409 4.74611 1.66356
C 18.1468 3.39785 3.24881
C 16.8901 3.74767 2.68352
C 7.37332 0.883909 3.23738
C 0.404982 6.00515 4.83105
C 8.6235 0.487123 3.80909
C 6.17768 0.25139 3.71206
C -0.801742 5.40215 5.28426
C -2.08076 5.75887 4.73836
C -3.80123 4.30422 0.262857
C -2.46493 2.93331 1.8654
C -2.55134 3.91645 0.84399
C -4.99705 3.67122 0.736587
C -3.67017 2.324 2.31338
C -4.94922 2.67668 1.76316
C 11.576 4.6155 3.93887
C 12.9258 3.25789 5.55942
C 12.8284 4.23959 4.54248
C 10.3858 3.96308 4.40074
C 22.108 2.2522 0.287604
C 10.4376 2.96554 5.42532
H 20.181 5.47659 1.42143
H 18.1607 2.64497 4.02481
H 9.53899 0.972629 3.46278
H 9.6068 4.2821 0.372236
H -1.63571 4.3926 0.488054
H -3.65531 1.56936 3.09013
H 13.7325 4.71133 4.17339
H 22.1329 1.48707 1.0577
N 25.751 -0.133969 0.139633
N 20.6475 3.64136 3.37115
N 15.5577 3.24272 2.92873
N 14.8021 2.35972 3.55391
N 7.3447 1.89257 2.19909
N 1.70175 5.63909 5.40641
N -3.34455 5.22029 5.11031
N 6.12522 4.15515 0.00519971
N -14.2236 5.68117 4.9162
N -1.16818 2.55991 2.4363
N -6.21264 2.13708 2.13509
N -7.13768 1.44223 2.72266
N 11.5424 5.61573 2.89844
N 24.5991 2.52639 0.452087
N 19.58 2.05843 0.116049
N 18.645 1.37803 0.702257
O 15.625 5.04117 1.16312
O 17.0163 0.810387 5.42732
O 14.7689 0.501534 5.23245
O 20.7129 2.74249 4.30055
O 21.7461 4.20395 2.95298
O 4.96941 0.555837 3.22501
O 8.45295 2.44746 1.7837
O 6.1925 2.23629 1.66328
O 12.168 4.35091 0.622
O 2.79952 6.20375 4.99084
O -6.20535 3.97562 0.249324
O -13.1151 6.2386 4.50372
O -15.376 6.02516 4.38059
O -1.09992 1.66138 3.36683
O -0.0682012 3.12186 2.01989
O 9.17977 4.2621 3.91154
O 12.6581 6.19645 2.50876
O 10.3953 5.9504 2.35795
O 24.6525 1.66799 1.42086
O 25.7116 3.0856 0.0648511
68
 Atoms. Timestep: 10157
C 17.8798 5.35644 0.353348
C 18.592 4.02622 2.27597
C 18.8815 4.90359 1.22423
C 16.5501 4.93104 0.559325
C 17.2635 3.6143 2.462
C 16.2432 4.06091 1.61062
C 7.33995 0.257344 2.91832
C -0.0198299 4.44596 4.24761
C 0.0358712 5.38212 3.20711
C 6.17403 0.150544 3.70652
C -1.1934 4.33821 5.0014
C -2.28796 5.1698 4.74369
C -2.92918 4.53638 0.755186
C -2.05514 2.83209 2.27778
C -1.90433 3.67259 1.16523
C -4.12533 4.56824 1.49741
C -3.25889 2.86181 2.98607
C -4.2907 3.7284 2.60578
C 11.2857 3.44873 4.32386
C 22.4407 2.29409 0.735349
C 12.2715 2.95617 5.19027
C 9.98145 2.94573 4.40548
C 21.1246 1.82034 0.819883
C 9.66562 1.98423 5.36572
H 19.905 5.20687 1.05116
H 17.0215 2.94333 3.26922
H 0.924133 5.45389 2.60389
H 9.20491 3.95812 0.414628
H -0.987134 3.65288 0.604334
H -3.38162 2.22936 3.85191
H 13.2742 3.34802 5.12039
H 20.8782 1.06894 1.54839
N 16.1695 -0.0486898 4.66131
N 19.6458 3.54124 3.13428
N 14.8982 3.65201 1.79725
N 14.5401 2.80149 2.76993
N 7.43922 1.20252 1.83785
N 1.10386 3.59587 4.52941
N 6.98817 5.41697 0.130536
N 6.87121 4.53673 1.1351
N -13.1991 5.03402 4.98627
N -0.98798 1.95744 2.68923
N -5.50203 3.77716 3.33439
N -5.7165 2.9833 4.39406
N 11.6234 4.50425 3.40319
N 23.4729 1.77443 1.59873
N 18.7781 1.90128 0.104503
N 18.3743 1.117 1.11289
O 5.12223 5.03952 5.18178
O 17.2651 0.654346 4.71743
O 15.4685 -0.0165336 3.56565
O 19.4048 2.65398 4.05285
O 20.8643 3.97818 3.00458
O 5.15153 0.95081 3.50366
O 8.60089 1.56366 1.38461
O 6.37772 1.65574 1.23988
O 0.99684 2.61106 5.37187
O 2.24613 3.78908 3.94112
O -5.08644 5.4094 1.18386
O -12.0049 5.32515 4.56654
O -14.2146 5.44706 4.28622
O -1.1355 1.15923 3.70624
O 0.149317 1.95929 2.06
O 9.04119 3.42272 3.62055
O 12.4908 5.41149 3.75106
O 11.1288 4.52597 2.19886
O 23.1909 0.917969 2.53463
O 24.7129 2.1383 1.4494
68
 Atoms. Timestep: 20219
C 17.6711 5.4925 0.489766
C 18.0555 4.23989 2.55287
C 18.4941 5.12725 1.56679
C 16.3796 4.94055 0.405435
C 16.7729 3.6952 2.44898
C 15.941 4.03199 1.37458
C 7.55187 0.292684 2.65537
C 0.0579805 4.03374 3.91137
C 0.141164 4.99683 2.90064
C 6.40767 0.215822 3.46448
C -1.10107 3.95627 4.68415
C -2.15443 4.83889 4.46656
C -3.04703 4.21765 0.483556
C -2.16338 2.44146 1.91492
C -2.0353 3.31502 0.825093
C -4.20061 4.25141 1.27705
C -3.33081 2.47435 2.67127
C -4.34667 3.37635 2.35981
C 11.2303 2.67707 4.69215
C 22.4845 2.12894 1.40798
C 22.753 3.00507 0.34654
C 9.90307 2.23599 4.90189
C 21.1545 1.7063 1.60417
C 20.1119 2.14258 0.760588
H 19.4859 5.5384 1.63859
H 16.4313 2.99891 3.19887
H 1.01608 5.04786 2.28093
H 9.31133 4.00387 0.26866
H -1.14887 3.28789 0.225407
H -3.44253 1.80942 3.5129
H 23.7736 3.3318 0.174782
H 20.9258 1.04851 2.42482
N 16.1264 0.0493578 4.7061
N 18.913 3.88483 3.65248
N 14.6508 3.46737 1.25116
N 14.2051 2.53909 2.10832
N 7.66806 1.25697 1.58836
N 1.14294 3.12608 4.14285
N -3.33124 4.77225 5.24842
N 6.9776 4.60955 0.984659
N -13.3809 4.30074 4.53354
N -1.1094 1.52501 2.2525
N -5.52845 3.42519 3.13148
N -5.74042 2.59127 4.1602
N 11.5481 3.60339 3.64266
N 23.5523 1.68313 2.28432
N 18.7675 1.72992 0.96905
N 18.4195 0.925558 1.98458
O 5.06732 4.50709 4.6332
O 17.1388 0.806531 4.96321
O 15.6387 0.120065 3.51257
O 18.4026 3.38116 4.73525
O 20.1992 4.08424 3.59914
O 5.43061 1.07183 3.30549
O 8.84343 1.5846 1.1343
O 6.60819 1.74087 1.00341
O 1.007 2.13531 4.97211
O 2.27337 3.26722 3.51873
O -5.14255 5.12786 1.0284
O -12.1912 4.54923 4.06554
O -14.418 4.7709 3.89585
O -1.23473 0.69272 3.24371
O -0.00102802 1.51984 1.57833
O 8.91408 2.67179 4.14347
O 12.5626 4.39626 3.75012
O 10.8859 3.63241 2.5319
O 23.3229 0.819978 3.22981
O 24.764 2.14471 2.15961
68
 Atoms. Timestep: 30281
C 17.6309 5.19198 0.816091
C 17.4267 3.97877 2.92645
C 18.133 4.83054 2.06965
C 16.4036 4.65753 0.409979
C 16.206 3.46945 2.50779
C 15.7043 3.79196 1.24933
C 7.35743 0.277191 2.52878
C -0.0748064 3.68189 3.62116
C -0.146001 4.65908 2.62624
C 6.31917 0.149007 3.47171
C -1.12125 3.56337 4.53981
C -2.2217 4.4164 4.47358
C -3.47048 4.10971 0.271837
C -2.54013 2.30708 1.64048
C -2.4658 3.17215 0.538423
C -4.56093 4.18681 1.15186
C -3.64455 2.38562 2.48755
C -4.6505 3.32427 2.25129
C 11.3139 2.24585 4.72186
C 22.7069 2.20466 1.67015
C 22.9457 3.01619 0.549737
C 9.99234 1.80994 4.98585
C 21.3824 1.78334 1.91744
C 20.3164 2.15963 1.06991
H 27.6698 -0.00180488 2.38536
H 15.6472 2.82218 3.1622
H 0.646049 4.74037 1.90258
H 9.50602 3.98153 0.289065
H -12.2077 1.9511 4.89874
H -3.71083 1.73074 3.34348
H 23.9624 3.33855 0.338659
H 21.1772 1.17409 2.78275
N 16.3947 -0.310957 5.00041
N 17.9489 3.6268 4.21734
N 14.4892 3.23492 0.806623
N 13.8694 2.28387 1.51625
N 7.32301 1.27272 1.48198
N 1.04927 2.7932 3.69315
N 7.2992 5.47379 0.382066
N 7.31334 4.56605 1.36849
N -13.944 3.81228 4.14689
N -1.49381 1.35444 1.90018
N -5.7626 3.42714 3.12136
N -5.90406 2.62153 4.18331
N 11.6025 3.10597 3.60409
N 23.7969 1.82518 2.55388
N 18.9815 1.74812 1.32877
N 18.6642 0.964671 2.36994
O 5.34103 3.77393 4.24862
O 17.679 -0.175541 5.15201
O 15.7767 0.43557 4.13236
O 17.2029 3.01192 5.08754
O 19.1765 3.91324 4.5322
O 5.2847 0.954761 3.43364
O 8.42642 1.62903 0.894299
O 6.19839 1.7784 1.0674
O 0.985915 1.72453 4.43146
O 2.13205 3.02118 3.01123
O -5.49077 5.09791 0.972126
O -12.7776 4.05957 3.6282
O -15.0072 4.28855 3.5649
O -1.58916 0.509666 2.88471
O -0.424509 1.32903 1.16122
O 8.98564 2.18789 4.22237
O 12.6189 3.91527 3.6383
O 10.9028 3.05273 2.50583
O 23.6005 0.993645 3.53513
O 24.9898 2.32557 2.40597
68
 Atoms. Timestep: 40327
C 17.6113 5.20484 1.0889
C 17.2061 3.97739 3.16479
C 17.9956 4.8266 2.38005
C 16.4171 4.69252 0.572487
C 16.0259 3.47993 2.63277
C 15.6392 3.8199 1.33771
C 7.44853 0.110057 2.34884
C -0.0708133 3.27682 3.40521
C -0.159871 4.25072 2.40454
C 6.44741 0.00944134 3.33487
C -1.07277 3.19705 4.37359
C -2.15414 4.0725 4.34531
C -14.4972 2.56893 5.02349
C -2.85734 2.12452 1.3738
C -4.28578 3.02625 0.274073
C -4.87991 4.02983 1.06072
C -3.88712 2.2111 2.30902
C -4.89301 3.1629 2.16125
C 11.2511 2.0893 4.81401
C 22.7426 2.39938 1.91753
C 22.9474 3.163 0.757542
C 9.95401 1.60838 5.11114
C 21.4445 1.92856 2.19294
C 20.367 2.21377 1.33248
H 27.5856 0.194771 2.78766
H 15.4109 2.82498 3.22714
H 0.601123 4.30507 1.64644
H -1.00412 2.46104 5.15744
H -12.7121 1.55146 4.46671
H -3.89415 1.55229 3.16421
H 23.9442 3.52006 0.523044
H 21.2678 1.35368 3.08806
N 27.1277 1.07079 0.32287
N 17.5991 3.62457 4.49806
N 14.4709 3.2806 0.77883
N 13.7913 2.30906 1.39789
N 7.40073 1.10324 1.30107
N 1.02836 2.36153 3.43019
N 7.45961 5.37814 0.399954
N 7.48684 4.47641 1.3956
N -14.4709 3.43667 3.8693
N -1.81038 1.1582 1.54135
N -5.92357 3.27616 3.11908
N -5.99191 2.47465 4.1953
N 11.4972 2.89923 3.65261
N 23.8424 2.11629 2.81614
N 19.0511 1.74905 1.61321
N 18.78 0.994621 2.69089
O 5.41063 3.62011 4.28202
O 28.3975 1.2002 0.605323
O 15.9833 0.439494 4.31176
O 27.3593 4.51058 0.408465
O 18.8284 3.80359 4.89546
O 5.43031 0.831622 3.33205
O 8.48589 1.41737 0.646593
O 6.27494 1.67022 0.952642
O 0.943688 1.27095 4.12442
O 2.11322 2.58763 2.74372
O -5.80378 4.94968 0.959229
O -13.3406 3.68583 3.26277
O -15.5783 3.91673 3.36093
O -1.87335 0.265384 2.48504
O -0.772699 1.16224 0.75804
O 8.92653 1.91402 4.33861
O 12.4459 3.77019 3.6435
O 10.8306 2.74046 2.56343
O 23.6832 1.33153 3.84267
O 25.0121 2.66296 2.63821
68
 Atoms. Timestep: 50339
C 17.601 5.2314 1.24261
C 17.1179 4.02219 3.31446
C 26.6537 -0.00935623 2.55636
C 16.4302 4.70405 0.676776
C 15.9644 3.50713 2.73209
C 15.6266 3.82983 1.41483
C -1.26774 4.90378 2.25778
C -0.0747718 3.06946 3.33602
C -0.177467 4.031 2.32379
C 6.44998 -0.0783265 3.24561
C -1.07564 2.98947 4.30626
C -2.16997 3.84961 4.26881
C -14.7416 2.27295 4.84003
C -3.0161 1.98121 1.22902
C -13.7075 1.3471 4.99444
C -5.09151 3.84018 0.964557
C -4.0243 2.05007 2.19201
C -5.05586 2.97859 2.06978
C 11.2206 2.02707 4.86108
C 22.7203 2.53498 2.06351
C 22.9222 3.27089 0.885456
C 9.93337 1.52769 5.15768
C 21.4321 2.04382 2.33649
C 20.3613 2.28309 1.45607
H 27.5377 0.39956 3.0031
H 15.3311 2.85054 3.3046
H 0.58472 4.08449 1.56548
H -0.994192 2.26496 5.09982
H -12.9469 1.29263 4.23828
H -3.99404 1.3953 3.04976
H 23.9117 3.64235 0.651969
H 21.2574 1.48928 3.24496
N 27.1772 1.24462 0.505767
N 17.4558 3.6917 4.67125
N 14.4857 3.27401 0.807274
N 13.7873 2.30009 1.39701
N 7.39247 1.00501 1.19961
N 1.03673 2.16934 3.37136
N 7.45789 5.27893 0.386264
N 7.50029 4.39618 1.39691
N -14.7632 3.13514 3.68303
N -1.94489 1.03805 1.37003
N -6.06246 3.07369 3.05569
N -6.08295 2.28166 4.14045
N 11.4629 2.81096 3.6793
N 23.8127 2.30018 2.98313
N 19.055 1.79644 1.73304
N 18.789 1.06272 2.82518
O 5.45743 3.49345 4.30749
O 28.4304 1.38881 0.844819
O 16.0641 0.47089 4.40071
O 27.1926 4.73199 0.618641
O 18.6691 3.86769 5.1164
O 5.42001 0.726478 3.23293
O 8.46728 1.31809 0.532258
O 6.26568 1.56762 0.855446
O 0.953507 1.06461 4.03596
O 2.13566 2.42941 2.7205
O -6.04005 4.73486 0.883882
O -13.6574 3.41588 3.05112
O -15.8923 3.57867 3.19293
O -1.97775 0.129616 2.29799
O -0.916998 1.07721 0.575448
O 8.91001 1.79566 4.36763
O 12.3853 3.70881 3.66675
O 10.8177 2.59759 2.58424
O 23.6565 1.54302 4.02954
O 24.9711 2.86553 2.80412
68
 Atoms. Timestep: 60402
C 26.3322 0.505483 1.37943
C 17.035 4.05063 3.445
C 26.6284 0.158432 2.70543
C 16.422 4.70292 0.782448
C 15.9044 3.5191 2.83174
C 15.6048 3.82781 1.50233
C -1.33312 4.71113 2.20706
C -0.101206 2.9016 3.29332
C -0.223974 3.85723 2.27764
C 6.42848 -0.147021 3.19456
C -1.1002 2.80723 4.26395
C -2.21339 3.64796 4.22206
C -14.8158 1.97239 4.65403
C -3.04401 1.82462 1.11315
C -13.7617 1.065 4.81378
C -5.15941 3.64627 0.837837
C -4.05471 1.87945 2.07463
C -5.10647 2.78964 1.94648
C 11.1719 1.97997 4.88278
C 22.6778 2.65114 2.16838
C 22.8791 3.3725 0.9811
C 20.5402 3.09062 0.3684
C 21.3939 2.14683 2.43673
C 20.327 2.35825 1.54325
H 27.4946 0.580168 3.17528
H 15.2603 2.86086 3.39015
H 0.537567 3.92084 1.51964
H -1.003 2.08701 5.0608
H -12.9989 1.0215 4.05877
H -4.01103 1.22874 2.93546
H 23.8654 3.75391 0.750987
H 21.2194 1.60317 3.35176
N 27.2033 1.39971 0.660799
N 17.3336 3.73561 4.81528
N 14.4874 3.25537 0.864301
N 13.7805 2.27844 1.4416
N 7.34848 0.946694 1.14351
N 1.02964 2.02004 3.33219
N 7.42491 5.18316 0.401258
N 7.49041 4.3096 1.41882
N -14.8543 2.83229 3.49401
N -1.95237 0.899919 1.25959
N -6.11718 2.87102 2.93128
N -6.11914 2.0845 4.01943
N 11.413 2.74885 3.69211
N 23.7663 2.44426 3.10065
N 19.0264 1.85707 1.81527
N 18.7607 1.13629 2.91506
O 5.47427 3.35821 4.33949
O 28.4431 1.55466 1.03427
O 16.1027 0.493365 4.47501
O 27.0604 4.89102 0.796815
O 37.9408 0.813729 0.491331
O 5.37954 0.638944 3.17718
O 8.415 1.2703 0.471472
O 6.21337 1.49218 0.802522
O 0.965816 0.909646 3.99787
O 2.12362 2.29936 2.68641
O -6.12835 4.52504 0.75146
O -13.7522 3.13993 2.87188
O -15.9901 3.24373 2.99597
O -10.7309 4.7323 2.18962
O -0.923876 0.956054 0.468075
O 8.86941 1.71244 4.37269
O 12.3203 3.66724 3.67513
O 10.783 2.5023 2.59052
O 23.6103 1.70295 4.1584
O 24.9192 3.01903 2.92089
68
 Atoms. Timestep: 70406
C 26.2747 0.641513 1.51441
C 16.9727 4.2196 3.59187
C 26.5194 0.35115 2.86269
C 16.4637 4.75705 0.883501
C 15.8834 3.6318 2.94451
C 15.6343 3.88139 1.59287
C -1.18319 4.61423 2.15489
C 0.0590678 2.82266 3.25344
C -0.0737377 3.76304 2.2269
C 6.52795 -0.203544 3.15203
C -0.932343 2.74558 4.23329
C -2.04658 3.58324 4.1906
C -14.5361 1.76119 4.46526
C -2.81995 1.64163 0.976147
C -13.4836 0.856413 4.6364
C -4.93509 3.46167 0.676946
C -3.82998 1.72193 1.94045
C -4.88163 2.63045 1.80126
C 11.1901 2.0747 4.9237
C 22.6086 2.83536 2.27236
C 22.8194 3.52018 1.06866
C 20.5146 3.16996 0.431506
C 21.3368 2.31443 2.53641
C 20.2917 2.47328 1.62285
H 27.3541 0.817109 3.35737
H 15.2305 2.9738 3.49315
H 0.681698 3.81396 1.46155
H -0.828494 2.0392 5.0382
H -12.7217 0.793506 3.87875
H -3.78614 1.09158 2.81274
H 23.7965 3.91359 0.841263
H 21.1547 1.79819 3.46343
N 27.1555 1.53645 0.808151
N 25.922 -0.750745 4.98433
N 14.5607 3.25063 0.923923
N 13.8467 2.27216 1.49126
N 7.43062 0.856479 1.07964
N 1.18998 1.94136 3.29345
N 7.54564 5.13326 0.404463
N 7.61928 4.28321 1.43421
N -14.5733 2.59444 3.2918
N -1.72954 0.719044 1.13392
N -5.88932 2.73652 2.78815
N -5.89271 1.98043 3.89121
N 11.4406 2.80735 3.71334
N 23.6749 2.68151 3.22495
N 19.0037 1.95404 1.89084
N 18.7299 1.26747 3.00503
O 5.62268 3.35655 4.39654
O 28.3709 1.72137 1.21537
O 16.1418 0.602395 4.57531
O 26.8778 5.11708 0.967387
O 37.6732 1.12818 0.72904
O 5.48071 0.579214 3.13395
O 8.4835 1.18116 0.397988
O 6.2994 1.38185 0.73676
O 1.14254 0.837334 3.97116
O 2.26947 2.21948 2.63259
O -5.90075 4.33957 0.579363
O -13.4787 2.91538 2.67667
O -15.7003 2.96566 2.77478
O -10.4464 4.54478 2.07677
O -10.1815 5.37862 0.339414
O 8.9193 1.7446 4.39094
O 12.3213 3.75761 3.69288
O 10.8454 2.49002 2.60858
O 23.5092 1.97535 4.29992
O 24.8154 3.27007 3.04415
68
 Atoms. Timestep: 80446
C 26.2302 0.7148 1.61187
C 16.9016 4.15922 3.6822
C 26.4542 0.422808 2.96076
C 16.4368 4.70099 0.972797
C 15.8241 3.5747 3.02722
C 15.5992 3.82734 1.67522
C -1.2367 4.49198 2.14102
C 0.0276516 2.71386 3.21964
C -0.117473 3.66018 2.20156
C -2.22453 4.36226 3.14074
C -0.959084 2.60877 4.20289
C -2.08258 3.42654 4.17046
C -14.4768 1.59001 4.32083
C -2.76527 1.57745 0.914544
C -13.4254 0.695382 4.51329
C -4.87712 3.37469 0.571373
C -3.79204 1.64528 1.85897
C -4.84275 2.543 1.69652
C 11.1289 2.01903 4.92801
C 22.5565 2.86611 2.3386
C 22.7754 3.55843 1.1383
C 20.461 3.20826 0.485514
C 21.276 2.34306 2.59397
C 20.2303 2.50596 1.674
H 27.2795 0.886871 3.45966
H 15.1629 2.91795 3.57023
H 0.633728 3.73288 1.43332
H -0.846351 1.89589 5.00073
H -12.6504 0.642774 3.77085
H -3.76276 1.01406 2.73254
H 23.7591 3.95462 0.91817
H 21.0878 1.82065 3.51802
N 27.1188 1.609 0.912136
N 25.8242 -0.684366 5.07462
N 14.5395 3.19979 0.997453
N 13.8206 2.22532 1.5673
N 7.35834 0.872601 1.073
N 1.16782 1.85281 3.24747
N 7.52769 5.04613 0.446294
N 7.61631 4.18564 1.47008
N -14.4939 2.42696 3.14794
N -1.67553 0.665654 1.09511
N -5.86987 2.63791 2.66276
N -5.88901 1.87846 3.76733
N 11.3872 2.75588 3.72192
N 23.6237 2.7055 3.29604
N 18.9333 1.9839 1.9316
N 18.6519 1.29307 3.04578
O 5.60239 3.20523 4.42332
O 28.3391 1.79138 1.32834
O 16.0897 0.580174 4.61588
O 26.7949 5.10795 1.09537
O 37.5774 1.32496 0.902121
O 5.41771 0.544458 3.133
O 8.41236 1.21411 0.387212
O 6.21215 1.387 0.738379
O 1.1357 0.760535 3.94048
O 2.23952 2.13295 2.56303
O -5.84332 4.24436 0.452796
O -13.3792 2.75518 2.55621
O -15.6204 2.79767 2.60953
O -10.4018 4.36639 2.04618
O -19.949 3.57279 5.03499
O 8.84804 1.68664 4.37739
O 12.2707 3.69752 3.69813
O 10.7988 2.45503 2.61651
O 23.4498 1.99879 4.37308
O 24.7758 3.28587 3.1176
68
 Atoms. Timestep: 90523
C 26.1881 0.895717 1.82301
C 25.4771 -0.175221 3.9047
C 26.3464 0.665113 3.19485
C 16.4397 4.71649 1.14841
C 15.7437 3.65856 3.21389
C 15.5857 3.85112 1.83977
C -1.29938 4.31903 2.07064
C 0.00899648 2.565 3.151
C -0.16655 3.49951 2.1234
C -2.27079 4.19041 3.08696
C -0.963575 2.46008 4.15029
C -2.10096 3.26536 4.12469
C -14.3567 1.2446 3.98531
C -2.63686 1.35715 0.69874
C -13.3008 0.359812 4.22188
C -15.3806 1.34298 4.94269
C -3.67419 1.45922 1.63063
C -4.73021 2.34829 1.423
C 11.0541 2.05127 5.02124
C 22.4496 3.05029 2.52633
C 22.6863 3.71507 1.31245
C 20.4012 3.29096 0.597566
C 21.1746 2.50479 2.75748
C 20.1524 2.61773 1.80036
H 27.1328 1.17185 3.71699
H 15.0697 3.00682 3.74614
H 0.571404 3.57329 1.34164
H -0.830865 1.75549 4.95453
H -12.518 0.281578 3.48816
H -3.65058 0.860083 2.52834
H 23.666 4.1288 1.11124
H 20.9726 2.00152 3.69024
N 27.0884 1.7846 1.13505
N 36.2516 1.42079 0.642144
N 14.5778 3.17193 1.12947
N 13.8389 2.21445 1.70169
N 7.27151 0.796988 0.991675
N 1.16507 1.71688 3.17273
N 7.53303 4.95655 0.45829
N 7.64624 4.10494 1.48881
N -14.3663 2.03983 2.78264
N -10.2502 4.92597 0.925049
N -5.76759 2.47811 2.37589
N -5.78852 1.76622 3.51299
N 11.3302 2.7598 3.80043
N 23.493 2.93868 3.52067
N 18.8612 2.07295 2.0334
N 18.5613 1.41388 3.16238
O 5.66379 3.08811 4.5349
O 28.2944 1.98409 1.58616
O 16.0694 0.665052 4.77402
O 35.3154 0.849444 1.34288
O 37.3229 1.82763 1.25261
O 5.36978 0.476337 3.08777
O -2.30705 -0.630908 4.98039
O 6.10713 1.26828 0.647098
O 1.18724 0.662472 3.92612
O 2.19903 1.97242 2.42529
O -16.3518 2.20574 4.77956
O -13.2451 2.38083 2.21253
O -15.4889 2.35756 2.19924
O -10.2723 4.09061 1.92008
O -19.8338 3.13766 4.82079
O 8.79943 1.64623 4.40872
O 12.1908 3.72273 3.77766
O 10.7811 2.41272 2.68447
O 23.2998 2.26838 4.61843
O 24.6428 3.5248 3.35273
68
 Atoms. Timestep: 100000
C 26.1384 1.00243 1.98561
C 25.3734 -0.0203875 4.07972
C 26.2522 0.822715 3.37643
C 16.4257 4.76817 1.28455
C 15.6757 3.75852 3.36236
C 15.5618 3.89803 1.96931
C -1.30221 4.25552 2.01895
C 0.022063 2.49532 3.10781
C -0.162968 3.42714 2.07149
C -2.2731 4.13874 3.0463
C -0.952061 2.40223 4.11485
C -2.09622 3.21506 4.09076
C -14.1825 1.10718 3.81656
C -2.49366 1.18948 0.538795
C -13.1331 0.202053 4.06351
C -15.2314 1.21004 4.76101
C -3.55431 1.29833 1.45589
C -4.60818 2.20202 1.23731
C 10.9781 2.13446 5.06302
C 22.3318 3.17824 2.60277
C 22.5889 3.82555 1.38017
C 20.3256 3.36429 0.623142
C 21.057 2.62544 2.81813
C 20.0561 2.70946 1.83547
H 27.0109 1.37256 3.91806
H 14.9941 3.10419 3.88845
H 0.575828 3.49107 1.28365
H -0.815621 1.6991 4.92428
H -12.3307 0.117965 3.34222
H -3.5505 0.692868 2.35258
H 23.5693 4.24426 1.19114
H 20.8384 2.13944 3.75913
N 27.0474 1.89596 1.30543
N 36.1017 1.63081 0.836312
N 14.593 3.16137 1.23488
N 13.8498 2.19635 1.80082
N 7.26059 0.728036 0.928704
N 1.18758 1.6404 3.1306
N 7.53865 4.91598 0.43306
N 7.65999 4.07613 1.47448
N -14.1561 1.9218 2.62152
N -10.107 4.74692 0.780528
N -5.66874 2.33558 2.17545
N -5.71978 1.61361 3.30685
N 11.2753 2.82427 3.83092
N 23.355 3.08911 3.62105
N 18.7668 2.15273 2.05222
N 18.4495 1.50858 3.18672
O 5.6937 3.08975 4.65544
O 28.235 2.12506 1.78802
O 16.0524 0.752835 4.92025
O 35.1552 1.05717 1.5223
O 37.1382 2.09045 1.47675
O 5.36349 0.43222 3.05203
O -2.33393 -0.739188 4.87547
O 6.10288 1.23453 0.617032
O 1.24005 0.606699 3.92075
O 2.20234 1.87358 2.34837
O -16.1989 2.08791 4.59366
O -13.0244 2.21738 2.04939
O -15.2589 2.31452 2.05141
O -10.1428 3.91121 1.77833
O -19.674 2.95645 4.69403
O 8.7437 1.69413 4.40957
O 12.1248 3.81043 3.81853
O 10.7575 2.43182 2.70276
O 23.1596 2.39367 4.70467
O 24.4883 3.71578 3.48542
68
 Atoms. Timestep: 100524
C 26.1354 1.00322 1.98768
C 25.3702 -0.0193834 4.08182
C 26.249 0.823843 3.37858
C 16.4231 4.7685 1.28652
C 15.6729 3.75909 3.36435
C 15.5593 3.89825 1.97125
C -1.30239 4.25591 2.01877
C 0.0213277 2.49555 3.10806
C -0.16326 3.42739 2.07168
C -2.27361 4.13928 3.04583
C -0.953139 2.4026 4.11479
C -2.09719 3.21555 4.09032
C -14.1744 1.10523 3.81448
C -2.4872 1.18704 0.537457
C -13.1254 0.199901 4.06235
C -15.2243 1.2079 4.75786
C -3.54882 1.29575 1.45344
C -4.6024 2.19955 1.23394
C 7.07705 2.19817 5.06334
C 22.3282 3.17925 2.60309
C 22.5856 3.82671 1.38063
C 20.3223 3.36592 0.62319
C 21.0532 2.62664 2.81818
C 20.0525 2.71094 1.83538
H 27.0073 1.37403 3.92029
H 14.9913 3.10466 3.89042
H 0.57579 3.49122 1.28407
H -0.817072 1.69944 4.92425
H -12.3222 0.115954 3.34197
H -3.54603 0.690077 2.34999
H 23.566 4.24526 1.1918
H 20.8344 2.14054 3.75909
N 27.0444 1.89681 1.30754
N 36.0982 1.63209 0.838453
N 14.591 3.16105 1.23672
N 13.8479 2.19599 1.80272
N 7.26084 0.728384 0.928411
N 1.18671 1.64044 3.1312
N 7.53731 4.91658 0.432287
N 7.65817 4.07665 1.4737
N -14.1466 1.9202 2.61967
N -10.1008 4.74439 0.780176
N -5.66398 2.33292 2.17094
N -5.71639 1.61053 3.30201
N 11.2724 2.82576 3.83134
N 23.3511 3.08975 3.62148
N 18.7631 2.15433 2.05185
N 18.4455 1.50999 3.18617
O 5.69144 3.08974 4.65735
O 28.2319 2.12632 1.79042
O 16.0496 0.753261 4.92203
O 35.1517 1.05839 1.52434
O 37.1346 2.09191 1.479
O 5.3631 0.432927 3.05127
O -2.33353 -0.739381 4.87513
O 6.10335 1.23531 0.61663
O 1.23908 0.607136 3.92188
O 2.20141 1.87297 2.3487
O -16.1915 2.08589 4.5898
O -13.0143 2.21441 2.04792
O 42.3778 2.3148 2.04944
O -10.1373 3.90915 1.77835
O -19.6673 2.95346 4.6943
O 8.74053 1.69605 4.40948
O 12.1221 3.81179 3.81917
O 10.7548 2.43341 2.70306
O 23.1556 2.39391 4.70482
O 24.4845 3.71643 3.48624
68
 Atoms. Timestep: 110525
C 26.0295 0.969092 2.03766
C 25.2516 -0.0611718 4.12385
C 26.1333 0.785927 3.42906
C 16.3228 4.73437 1.32791
C 15.562 3.7158 3.39755
C 15.4567 3.85964 2.00429
C -1.35453 4.29483 1.98311
C -0.0325719 2.53689 3.0792
C -0.213223 3.46947 2.04277
C -2.33233 4.17354 3.00377
C -1.01307 2.44027 4.07965
C -2.15925 3.24986 4.0488
C -14.1134 1.12354 3.76379
C -2.44854 1.19196 0.488488
C -13.0686 0.215257 4.02062
C -15.1798 1.21517 4.69037
C -3.52566 1.29092 1.38715
C -4.57694 2.19474 1.15775
C 13.0223 2.16007 5.06256
C 22.2477 3.16424 2.70397
C 22.4785 3.84652 1.42283
C 20.2254 3.3752 0.645234
C 20.9655 2.61675 2.87309
C 19.9713 2.71096 1.86872
H 26.8865 1.33607 3.97808
H 14.8806 3.05593 3.91699
H 0.531016 3.5363 1.26038
H -0.88047 1.73633 4.88885
H -12.2524 0.13903 3.3143
H -3.53725 0.677446 2.27822
H 23.4557 4.27752 1.24875
H 20.7293 2.11889 3.80329
N 26.9435 1.86518 1.36632
N 35.9696 1.58685 0.880856
N 14.4944 3.12295 1.26108
N 13.7447 2.15894 1.82028
N 7.21312 0.767976 0.892335
N 1.13486 1.68457 3.1086
N -3.15165 3.15426 5.06292
N 7.58896 4.11124 1.42933
N -14.0631 1.95315 2.57896
N -10.0639 4.74997 0.742399
N -5.65535 2.31679 2.07691
N -5.72816 1.58085 3.19802
N 11.1547 2.86984 3.83769
N 23.2566 3.05112 3.75883
N 18.6835 2.14535 2.07673
N 18.3583 1.50162 3.2094
O 5.59801 3.05995 4.69862
O 28.1221 2.10444 1.86582
O 15.9634 0.711278 4.96947
O 35.0179 1.01234 1.55891
O 37.0016 2.04484 1.5296
O 5.30104 0.462583 3.00307
O -2.38144 -0.709984 4.83428
O 6.05971 1.28703 0.58559
O 1.18855 0.655606 3.90484
O 2.1498 1.91455 2.32565
O -16.1455 2.09359 4.51597
O -12.9226 2.22811 2.01399
O 42.4737 2.38573 2.01258
O -10.1068 3.91939 1.7442
O -19.6243 2.95706 4.6651
O 8.63271 1.68777 4.44145
O 12.0605 3.8039 3.82015
O 10.5775 2.53872 2.71894
O 23.025 2.36519 4.8411
O 24.4078 3.64263 3.62667
68
 Atoms. Timestep: 120772
C 26.1437 0.979795 2.07574
C 25.3778 -0.116646 4.1237
C 26.2697 0.727129 3.44559
C 16.3381 4.59012 1.37294
C 15.5899 3.50633 3.40614
C 15.4635 3.7263 2.03498
C -1.53762 4.16734 1.97818
C -0.199902 2.44083 3.06653
C -0.382623 3.37929 2.04476
C -2.52407 3.99951 2.97643
C -1.18915 2.29245 4.0441
C -2.34865 3.06433 4.00501
C -14.3896 1.03192 3.70658
C -2.63883 1.2873 0.506655
C -13.328 0.158781 3.96977
C -15.4663 1.07138 4.61314
C -3.72542 1.3324 1.38484
C -4.7917 2.20191 1.14935
C 21.5435 3.88304 0.520378
C 22.2892 3.01415 2.68997
C 22.5451 3.71872 1.50167
C 20.2651 3.31852 0.728024
C 21.001 2.47224 2.88234
C 19.9921 2.6141 1.90776
H 27.0473 1.22 3.98764
H 14.903 2.85014 3.91889
H 0.368781 3.48306 1.27919
H -1.05485 1.57966 4.84219
H -12.5035 0.124749 3.27963
H -3.73266 0.70586 2.26495
H 23.5344 4.13262 1.33334
H 20.7798 1.94625 3.79809
N 27.0626 1.86962 1.41458
N 36.1824 1.62242 0.943767
N 14.4606 3.06964 1.29877
N 13.6945 2.12454 1.86064
N 7.0925 0.881468 0.901768
N 0.981351 1.62746 3.10568
N -3.35373 2.91786 4.99484
N 7.45987 4.0225 1.42827
N -14.3443 1.88121 2.53862
N -10.3058 4.64847 0.767853
N -5.88327 2.27102 2.04986
N -5.94339 1.50994 3.15394
N 11.1527 2.68599 3.88029
N 23.3253 2.8554 3.69276
N 18.6937 2.06574 2.09857
N 18.3641 1.38253 3.20562
O 5.52222 2.8128 4.67284
O 28.2575 2.06271 1.89439
O 16.0039 0.582897 4.95822
O 35.2203 1.05251 1.61265
O 37.2483 2.00482 1.58114
O 5.15906 0.486556 2.9675
O -2.56153 -0.736222 4.78077
O 5.93217 1.37952 0.586097
O 1.04639 0.607143 3.90845
O 1.9965 1.8815 2.33147
O -16.4518 1.91863 4.43411
O -13.2007 2.17804 1.98973
O 42.7767 2.31139 1.97521
O -10.3468 3.80505 1.75782
O -19.9215 2.73272 4.62545
O 8.61821 1.51986 4.43114
O 12.113 3.55983 3.91652
O 10.508 2.56116 2.72972
O 23.1234 2.12195 4.74939
O 24.4795 3.44847 3.56823
68
 Atoms. Timestep: 130886
C 26.1935 1.10041 2.17028
C 25.377 -0.0581436 4.16568
C 26.295 0.793642 3.53502
C 16.389 4.67896 1.42495
C 15.5916 3.53228 3.40836
C 15.4853 3.80129 2.04
C -1.55003 4.07338 1.95783
C -0.175534 2.35127 3.01973
C -0.383334 3.2967 2.00637
C -2.52302 3.88583 2.96948
C -1.15114 2.18846 4.00977
C -2.31956 2.94994 3.99289
C -14.4515 0.908595 3.69396
C -2.72667 1.15675 0.481255
C -13.4053 0.00862535 3.93639
C -15.541 0.926303 4.5935
C -3.82193 1.18817 1.35267
C -4.87852 2.07445 1.13653
C 21.5628 3.90074 0.507118
C 22.3026 3.08033 2.68902
C 22.5604 3.75699 1.48576
C 20.2885 3.34122 0.734228
C 21.0212 2.54291 2.90159
C 20.0178 2.65877 1.92797
H 27.0733 1.24999 4.11912
H 14.8878 2.86597 3.88538
H 0.361396 3.41243 1.23466
H -0.997239 1.47164 4.80007
H -12.5686 -0.0157952 3.25801
H -3.84168 0.539201 2.21523
H 23.5461 4.1648 1.30039
H 20.8004 2.0429 3.83256
N 27.148 1.9978 1.56347
N 36.1723 1.68371 1.01346
N 14.4835 3.18695 1.25809
N 13.7142 2.20228 1.74188
N 7.0466 0.86754 0.886573
N 1.01748 1.55211 3.03685
N -3.30516 2.79414 5.00121
N 7.55757 3.98833 1.49091
N -14.371 1.80432 2.5589
N -10.3911 4.42951 0.725081
N -5.97731 2.1291 2.03041
N -6.05536 1.35189 3.12161
N 11.1631 2.62049 3.81626
N 23.3331 2.9427 3.68984
N 18.7259 2.10553 2.13553
N 18.4115 1.43208 3.25274
O 5.58533 2.89843 4.69668
O 28.3174 2.18642 2.10417
O 26.8403 2.68221 0.502202
O 35.1239 1.31618 1.69393
O 37.3108 1.81143 1.63068
O 5.13868 0.425737 2.97812
O -11.4255 3.30016 4.64629
O 5.90545 1.44911 0.668206
O 1.08232 0.486458 3.77432
O 2.04586 1.86753 2.30312
O -16.5212 1.78029 4.43647
O -13.2421 1.98005 1.9338
O -15.4214 2.4238 2.10697
O -10.4617 3.52714 1.65776
O -19.9862 2.50994 4.59534
O 8.63257 1.47826 4.40777
O 12.0907 3.52494 3.8392
O 10.5462 2.43817 2.66322
O 23.148 2.19259 4.73673
O 24.4673 3.57035 3.5707
68
 Atoms. Timestep: 141127
C 26.2055 1.16477 2.18697
C 25.3987 -0.0395579 4.1572
C 26.3188 0.817092 3.54145
C 25.1472 0.615532 1.43888
C 15.5788 3.48697 3.39835
C 15.4592 3.79813 2.04047
C -1.65064 3.99664 1.97401
C -0.242348 2.28156 3.00793
C -0.470089 3.23769 2.00889
C -2.61614 3.77831 2.98509
C -1.20999 2.08863 3.99839
C -2.39057 2.83301 3.9961
C -14.47 0.773895 3.68629
C -2.77218 1.08408 0.530954
C -13.4304 -0.129837 3.95392
C -15.5889 0.7769 4.55001
C -3.89058 1.10791 1.3705
C -4.93949 2.00002 1.13323
C 21.5581 3.9228 0.506798
C 22.3073 3.09 2.68217
C 22.5616 3.77108 1.48121
C 20.2817 3.36819 0.733735
C 21.0241 2.55628 2.8955
C 20.0155 2.67896 1.9242
H 27.1104 1.24127 4.13074
H 14.8737 2.81684 3.86647
H 0.269818 3.37656 1.23778
H -1.0411 1.36165 4.77702
H -12.5677 -0.140519 3.31034
H -3.93643 0.44695 2.22323
H 23.5493 4.17531 1.29471
H 20.806 2.05434 3.82581