68
 Atoms. Timestep: 0
C 7.36853 9.41305 1.44062
C 2.18377 8.23584 2.35225
C 7.91968 8.26446 2.00884
C 8.16893 10.5329 1.21603
C 2.9842 9.35584 2.1273
C 2.4331 10.5044 1.55913
C 8.94293 21.7138 2.62326
C 3.75818 20.5366 3.53489
C 9.49409 20.5652 3.19148
C 9.74333 22.8337 2.39868
C 4.5586 21.6566 3.30995
C 4.00751 22.8051 2.74177
C 11.2987 36.8923 2.91217
C 6.11397 35.7151 3.82381
C 4.76235 35.7437 3.48039
C 5.0116 38.0122 2.68759
C 6.91439 36.8351 3.59886
C 6.3633 37.9836 3.03068
C 8.41961 28.8372 2.56156
C 10.3224 27.66 3.47319
C 8.97076 27.6886 3.12978
C 9.22001 29.9571 2.33697
C 4.03527 28.78 3.24824
C 10.5717 29.9285 2.68007
H 7.30414 7.38604 2.18829
H 4.04085 9.3598 2.38605
H 8.87855 19.6868 3.37094
H 5.61526 21.6605 3.56869
H 11.2343 34.8653 3.65985
H 7.97104 36.8391 3.8576
H 8.35522 26.8102 3.30923
H 5.09193 28.784 3.50699
N 5.9788 9.38339 1.11
N 2.74502 7.06703 2.93123
N 3.26837 11.5916 1.35598
N 3.92315 12.4435 1.1966
N 7.5532 21.6841 2.29264
N 4.31943 19.3677 4.11387
N 4.84277 23.8923 2.53862
N 5.49755 24.7442 2.37924
N 9.90899 36.8627 2.58155
N 6.67522 34.5463 4.40279
N 7.19856 39.0709 2.82754
N 7.85334 39.9228 2.66816
N 7.02988 28.8075 2.23094
N 3.7961 26.4912 4.05217
N 4.31945 31.0157 2.47692
N 4.97423 31.8677 2.31754
O 7.66925 11.5962 0.692725
O 5.32958 8.34044 1.34314
O 5.4624 10.4018 0.599928
O 3.96284 7.06281 3.23328
O 2.00763 6.0705 3.12551
O 9.24365 23.897 1.87537
O 6.90399 20.6412 2.52578
O 7.0368 22.7025 1.78257
O 5.53725 19.3635 4.41592
O 3.58204 18.3712 4.30815
O 4.51192 39.0755 2.16428
O 9.25977 35.8197 2.8147
O 9.39259 37.881 2.07149
O 6.88523 34.2785 0.120937
O 4.93002 33.2862 0.01317
O 8.72033 31.0204 1.81366
O 6.38066 27.7646 2.46408
O 6.51348 29.8259 1.72087
O 5.01392 26.487 4.35421
O 10.1462 25.4946 4.24645
68
 Atoms. Timestep: 62
C 6.68987 9.30156 1.69753
C 0.936698 8.04672 2.33241
C 7.29634 8.12712 2.08361
C 7.4731 10.4347 1.52915
C 1.70952 9.20093 2.17624
C 1.11373 10.4016 1.76162
C 7.16448 21.361 2.56019
C 1.41314 20.1387 3.18695
C 7.77117 20.2058 2.94203
C 7.94213 22.4672 2.38131
C 2.18664 21.2961 3.02753
C 1.58501 22.484 2.60115
C 8.42049 36.4711 2.75522
C 2.68417 35.2458 3.38223
C 1.299 35.3056 3.13951
C 1.46887 37.6039 2.58685
C 3.44659 36.3893 3.22894
C 2.84485 37.5765 2.81818
C 6.00366 28.4963 2.50274
C 7.99985 27.2827 3.12865
C 6.61491 27.3374 2.88312
C 6.77821 29.6256 2.33758
C 1.02552 28.4185 2.97221
C 8.14451 29.5937 2.55673
H 6.69278 7.25768 2.21914
H 2.7216 9.18423 2.45088
H 7.16222 19.3511 3.07223
H 3.19758 21.2845 3.30282
H 8.4262 34.4282 3.276
H 4.45452 36.356 3.50849
H 6.01432 26.4578 3.02243
H 2.04295 28.3874 3.25322
N 5.27362 9.34011 1.43332
N 1.53027 6.8053 2.75058
N 1.67619 11.6979 1.5184
N 2.8956 12.2377 1.5923
N 5.74596 21.4211 2.28866
N 2.00353 18.903 3.6027
N 2.16197 23.7716 2.34153
N 3.41611 24.2244 2.34183
N 7.00456 36.5068 2.49182
N 3.28855 34.0295 3.80052
N 3.40656 38.868 2.57563
N 4.62734 39.4034 2.6515
N 4.59685 28.5309 2.24079
N 0.862835 26.094 3.54325
N 0.964167 30.8627 2.33481
N 2.23611 31.2364 2.31707
O 6.93657 11.572 1.15373
O 4.62274 8.22146 1.48967
O 4.63685 10.3844 1.04764
O 2.792 6.70193 2.9933
O 0.8055 5.75135 2.90969
O 7.35767 23.5186 1.96167
O 5.08775 20.3129 2.34125
O 5.1106 22.464 1.89466
O 3.26412 18.8017 3.84459
O 1.27695 17.8507 3.76092
O 8.66684 38.7395 2.21198
O 6.35465 35.3882 2.54781
O 6.36799 37.5511 2.1061
O 4.36811 34.1555 0.748901
O 2.33963 33.3079 0.784637
O 6.25281 30.7631 1.96098
O 3.94545 27.4152 2.29859
O 3.96987 29.5715 1.84703
O 1.59895 28.2776 3.93499
O 7.84555 25.1126 3.78762
