68
 Atoms. Timestep: 0
C 9.35577 10.4079 27.6897
C 8.50511 10.3342 29.9498
C 9.13453 9.70644 28.875
C 8.94745 11.7369 27.5792
C 14.8065 11.6635 29.8393
C 10.8929 7.39708 28.6541
C 7.7382 4.09133 12.8602
C 6.88754 4.01771 15.1204
C 11.6518 8.35773 14.0455
C 7.32988 5.42036 12.7498
C 6.4795 5.34698 15.0099
C 6.70072 6.04837 13.8246
C 8.59224 3.57767 1.22918
C 7.74158 3.50405 3.48935
C 8.37099 2.87625 2.41449
C 8.18392 4.9067 1.11874
C 7.33354 4.83331 3.37885
C 3.4199 0.566889 2.19363
C 15.9379 14.5755 41.127
C 15.0872 14.5019 43.3872
C 15.7167 13.8741 42.3124
C 11.3947 10.9367 41.0166
C 14.6792 15.8311 43.2767
C 10.7656 11.5647 42.0915
H 9.44883 8.66978 28.9712
H 14.3135 12.1764 30.6623
H 11.9661 7.32107 14.1417
H 5.98645 5.85987 15.8329
H 1.97582 1.83959 2.51072
H 6.84049 5.34621 4.20184
H 9.32148 12.8374 42.4086
H 2.20871 0.246591 0.162239
N 10.0046 9.7125 26.6233
N 8.27919 9.62037 31.1564
N 10.4689 8.71517 28.5924
N 10.1367 9.74825 28.5443
N 8.38701 3.39597 11.7939
N 10.7965 8.27165 16.3269
N 6.27666 7.36646 13.7629
N 12.654 8.39954 13.7148
N 2.53157 2.88231 0.162847
N 7.51566 2.79018 4.69588
N 2.99584 1.88498 2.13192
N 2.66366 2.91806 2.08378
N 16.5867 13.8801 40.0607
N 7.01875 2.65837 0.65627
N 10.3415 12.8828 42.0298
N 16.7188 13.9159 41.9816
O 11.7219 7.42344 26.4902
O 10.3397 8.52104 26.8014
O 10.2132 10.3208 25.5508
O 7.71074 10.2039 32.1107
O 8.65371 8.42533 31.235
O 7.52967 6.07472 11.6607
O 6.14751 7.17233 11.9719
O 8.59561 4.00425 10.7213
O 10.228 8.85514 17.2812
O 11.171 7.07662 16.4055
O 4.24885 0.593245 0.029694
O 2.86669 1.69085 0.340868
O 17.2922 14.6202 43.0277
O 6.94721 3.37366 5.6502
O 1.18069 1.59514 4.77452
O 11.5945 11.591 39.9276
O 10.2124 12.6887 40.2387
O 16.7953 14.4884 38.9881
O 6.45029 3.24186 1.61059
O 7.39326 1.46333 0.734918
68
 Atoms. Timestep: 66
C 9.36749 11.6689 28.6373
C 8.12969 11.6287 31.2868
C 9.23395 10.9211 30.0639
C 8.17213 13.1043 28.5196
C 17.6004 13.0697 31.1578
C 13.1256 8.40962 29.7729
C 8.99161 4.50038 11.3233
C 7.7538 4.46018 13.9728
C 13.3526 9.15244 12.75
C 7.79625 5.93581 11.2057
C 6.54389 5.90113 13.8438
C 6.5636 6.64099 12.459
C 10.211 3.70542 -2.25582
C 8.97209 3.66451 0.393269
C 10.0765 2.95699 -0.829384
C 9.01485 5.14056 -2.37358
C 7.76216 5.10552 0.264305
C 3.28738 0.445543 -1.1206
C 18.5051 16.4741 44.3251
C 17.2685 16.4326 46.975
C 18.3713 15.7258 45.7538
C 12.8168 12.5087 44.2082
C 16.0581 17.873 46.8456
C 11.584 13.2138 45.4618
H 10.2515 9.77043 30.1658
H 16.6258 13.6441 32.1175
H 14.3702 8.0018 12.8519
H 5.56922 6.47559 14.8036
H 0.413239 1.80622 -0.727734
H 6.78746 5.67991 1.22397
H 19.3891 14.5722 45.8568
H 1.42995 0.0427233 -3.49393
N 10.6759 10.8837 27.403
N 8.10766 10.876 32.6973
N 11.9278 9.83927 29.6995
N 11.0964 10.9879 29.6123
N 10.3 3.71516 10.0891
N 12.2263 9.10737 15.3833
N 5.36572 8.07064 12.3855
N 15.215 9.21927 12.2984
N 0.837706 2.91957 -3.48973
N 8.95001 2.91178 1.80371
N 2.08945 1.87505 -1.19403
N 1.25815 3.02367 -1.28121
N 19.815 15.688 43.0911
N 8.08925 2.68546 -2.91308
N 10.3867 14.6427 45.3864
N 20.2098 15.749 45.2276
O 14.3681 8.39296 27.2487
O 11.7124 9.59624 27.6064
O 10.7199 11.5232 26.152
O 6.99059 11.5281 33.8067
O 9.20491 9.58343 32.7877
O 7.80608 6.62434 9.93481
O 5.15037 7.82762 10.2925
O 10.344 4.35466 8.83804
O 11.1092 9.75945 16.4928
O 13.3235 7.8148 15.4738
O 4.53083 0.429353 -3.64437
O 1.87736 1.64411 -3.28518
O 20.7493 16.5986 46.6281
O 7.83294 3.56387 2.91315
O -0.633395 1.61922 1.89417
O 12.8266 13.1973 42.9373
O 10.1709 14.4005 43.2949
O 19.8591 16.3275 41.8406
O 6.97297 3.33788 -1.80339
O 9.18732 1.39311 -2.82243
68
 Atoms. Timestep: 10086
C 9.09934 11.8313 28.846
C 7.92879 11.6319 30.9923
C 8.79421 11.1095 30.0134
C 8.50945 13.1008 28.6516
C 18.0366 12.9008 30.7827
C 13.8286 8.24101 29.6191
C 8.72152 4.66451 11.516
C 7.5564 4.46697 13.6655
C 8.41986 3.94403 12.6851
C 8.13006 5.93319 11.3213
C 6.98594 5.73516 13.4555
C 7.26492 6.46903 12.2903
C 10.4392 4.34165 -2.74221
C 9.59842 4.56734 -0.448637
C 10.3537 3.88085 -1.41621
C 5.25499 0.12333 -3.10419
C 8.9287 5.74417 -0.826742
C 4.50501 0.826393 -2.14659
C 17.445 15.7633 45.3845
C 7.36961 3.09911 -3.66638
C 17.2904 15.3482 46.7184
C 16.8033 16.9461 44.9518
C 15.8886 17.2615 47.1822
C 16.0294 17.7043 45.8625
H 9.25108 10.1404 30.1641
H 17.3683 13.3167 31.5249
H 13.3683 8.37048 12.836
H 6.31912 6.1515 14.1989
H 10.8826 2.97871 -1.13927
H 3.85356 0.889969 -0.0946908
H 17.7928 14.4489 47.0487
H 6.13963 4.86125 -3.43254
N 10.0002 11.2622 27.8714
N 7.63276 10.8799 32.1918
N 13.2462 9.51943 29.3993
N 12.4132 10.0887 30.2867
N 9.6205 4.09487 10.5399
N 11.7544 9.11139 14.8667
N 6.68083 7.74667 12.0702
N 5.84962 8.31646 12.9588
N 20.365 16.586 47.5926
N 9.50248 4.06504 0.904525
N 3.82632 2.01469 -2.53116
N 3.15915 2.77388 -1.64613
N 18.2565 14.978 44.4849
N 7.26898 2.69061 -2.28267
N 10.8916 13.5256 45.5058
N 11.1165 14.1641 44.3461
O 4.2459 8.3839 27.5458
O 10.0696 9.97193 27.7127
O 10.8233 12.0169 27.2025
O 6.84586 11.3664 33.1086
O 8.14643 9.69864 32.3829
O 8.35364 6.61004 10.2141
O 14.1813 8.19944 10.3831
O 10.4411 4.84941 9.86781
O 10.9691 9.59836 15.7847
O 12.2698 7.93093 15.0582
O 14.4326 13.5499 46.9514
O 0.669396 2.30413 -3.57736
O 20.9944 17.1847 46.6235
O 8.80028 4.69439 1.80299
O 10.1012 2.9617 1.25128
O 12.3945 11.9107 43.6882
O 18.3389 13.687 44.6288
O 18.9891 15.5516 43.5743
O 6.56144 3.37881 -1.43294
O 7.91171 1.64519 -1.84643
68
 Atoms. Timestep: 20088
C 9.35009 11.9819 29.058
C 7.50946 11.403 30.5744
C 8.6188 11.0308 29.7923
C 8.94776 13.3366 29.1021
C 17.8117 12.7579 30.6118
C 14.0333 8.33263 29.8803
C 8.97091 4.81455 11.7184
C 7.14481 4.24322 13.255
C 12.7364 9.25975 12.4665
C 8.56575 6.1687 11.7554
C 6.76621 5.59741 13.2847
C 7.46715 6.56025 12.5395
C 10.4494 4.40053 -3.07695
C 9.63142 5.32625 -0.953029
C 10.3362 4.34645 -1.67412
C 14.5203 13.0881 47.5271
C 4.55638 0.997957 -1.65762
C 4.67223 1.09081 -3.05331
C 17.2947 15.3142 45.9348
C 7.45985 2.88177 -3.06769
C 17.2733 15.0303 47.312
C 16.6035 16.4524 45.457
C 6.79841 4.01892 -3.55987
C 15.9423 17.3129 46.3658
H 8.93008 9.99483 29.7643
H 16.9611 13.0614 31.2077
H 13.0503 8.22442 12.4442
H 5.91964 5.90347 13.8851
H 10.7986 3.52794 -1.13915
H 4.00913 1.75967 -1.11868
H 8.63884 1.16247 -3.61432
H 6.29337 4.69197 -2.87812
N 10.4862 11.5566 28.2728
N 6.7718 10.4123 31.327
N 13.6489 9.70133 29.9076
N 12.6076 10.1388 30.6351
N 10.1009 4.3857 10.9264
N 10.9041 8.6489 14.0215
N 7.07892 7.92803 12.5584
N 6.04104 8.36827 13.2892
N 20.2886 16.3231 47.5155
N 9.51022 5.23809 0.485551
N 13.2593 15.1766 47.5288
N 3.57412 3.24494 -3.13119
N 18.028 14.4478 45.0397
N 7.47714 2.59483 -1.65064
N 10.7763 13.1054 45.9621
N 10.8533 13.6084 44.7196
O 5.09101 8.85142 28.3866
O 10.5313 10.3543 27.7759
O 11.5224 12.3297 28.1223
O 16.4387 10.7558 32.0732
O 7.10096 9.15367 31.2758
O 9.18899 7.0716 11.0277
O 14.6323 8.57194 10.4382
O 11.1339 5.15988 10.7605
O 9.90593 8.99734 14.7821
O 11.2284 7.38913 13.9682
O 14.5865 13.1755 46.2151
O 0.64906 2.18206 -3.19391
O 20.7388 16.4794 46.3049
O 8.90467 6.17049 1.16336
O 9.99565 4.21973 1.13572
O 16.5402 16.6802 44.1625
O 18.215 13.1954 45.3388
O 18.6151 14.9247 43.9805
O 6.81834 3.34043 -0.810476
O 8.16129 1.59148 -1.18075
68
 Atoms. Timestep: 30092
C 9.39664 12.1008 29.1008
C 7.53566 11.3037 30.4873
C 8.7072 11.0586 29.7465
C 8.88895 13.4171 29.1922
C 17.7345 12.6226 30.5735
C 18.4026 13.679 29.9316
C 9.02502 4.93769 11.7643
C 7.16386 4.14134 13.151
C 8.33527 3.89578 12.4102
C 8.51778 6.25421 11.8556
C 6.68322 5.46046 13.2372
C 7.35158 6.5165 12.5952
C 10.3805 4.54472 -3.20205
C 9.56212 5.74748 -1.21842
C 10.2571 4.67416 -1.80319
C 14.4657 13.1451 47.2638
C 4.50987 1.33076 -2.05691
C 4.63027 1.24003 -3.45186
C 17.2565 15.1142 46.0937
C 7.70655 2.56532 -2.81797
C 17.4103 14.7663 47.4471
C 16.5071 16.2649 45.7583
C 6.98223 3.71707 -3.17068
C 15.9566 17.0744 46.7809
H 9.09721 10.0512 29.6788
H 16.837 12.8289 31.1419
H 13.2112 8.27829 12.3425
H 5.78584 5.66708 13.8056
H 10.7007 3.92587 -1.16081
H 3.97758 2.16686 -1.62329
H 8.82841 0.891795 -3.59
H 6.55537 4.34879 -2.40132
N 10.5981 11.8059 28.3547
N 6.84265 10.2217 31.1511
N 13.4289 9.62253 30.013
N 12.3303 9.94229 30.7175
N 10.2264 4.6424 11.0182
N 10.9568 8.44961 13.8149
N 6.86464 7.85025 12.6765
N 5.76616 8.17044 13.381
N 20.2256 16.3834 47.5381
N 9.43848 5.85115 0.219246
N 13.2386 15.2352 46.9926
N 12.7247 16.3752 47.4823
N 17.8693 14.2962 45.0737
N 7.89923 2.21253 -1.42886
N 10.7316 12.8733 46.5198
N 10.6006 13.4019 45.2924
O 4.99503 9.01556 28.5554
O 10.7495 10.6477 27.7796
O 11.5859 12.6527 28.3164
O 16.3891 10.4275 31.759
O 7.33704 9.01703 31.158
O 9.11041 7.24241 11.2187
O 10.3773 3.48412 10.4432
O 11.2145 5.48883 10.9799
O 9.82344 8.65585 14.423
O 11.4507 7.24476 13.8217
O 14.5435 13.073 45.9514
O 0.738789 2.40006 -2.98193
O 20.5036 16.2935 46.2701
O 4.29204 1.44275 0.763967
O 9.98429 4.96567 1.00278
O 16.2884 16.5509 44.4925
O 18.0226 13.0175 45.2573
O 18.3753 14.8349 44.0021
O 7.37528 2.93241 -0.478432
O 8.60895 1.17265 -1.09591
68
 Atoms. Timestep: 40097
C 9.39503 12.1112 29.1001
C 7.54154 11.2948 30.4859
C 8.71499 11.0615 29.7441
C 8.87582 13.423 29.1946
C 17.7321 12.6094 30.5747
C 18.3906 13.673 29.9348
C 9.02588 4.94961 11.761
C 7.17248 4.13326 13.1469
C 8.34587 3.89998 12.405
C 8.5067 6.26144 11.8555
C 6.67962 5.44782 13.2358
C 7.33811 6.51143 12.5958
C 10.3377 4.62503 -3.22031
C 4.98539 0.484511 -1.28529
C 10.1788 4.78612 -1.82794
C 14.4397 13.2047 47.2071
C 4.43903 1.43711 -2.15973
C 4.5905 1.31181 -3.54891
C 17.2747 15.0895 46.0896
C 7.84588 2.36969 -2.77869
C 17.4999 14.6491 47.4049
C 16.5083 16.2571 45.8741
C 7.10072 3.53872 -3.01196
C 16.0052 16.9877 46.9779
H 9.11372 10.0576 29.674
H 16.8329 12.8065 31.1438
H 13.2295 8.28443 12.3348
H 5.78049 5.64499 13.8049
H 10.6067 4.05368 -1.15721
H 3.89622 2.28295 -1.75899
H 18.0919 13.7579 47.5645
H 6.70872 4.10984 -2.17927
N 10.5985 11.8282 28.3523
N 6.85844 10.2053 31.1479
N 13.4063 9.61376 30.0187
N 12.3038 9.92206 30.7225
N 10.2293 4.66665 11.0131
N 10.9743 8.43212 13.8089
N 6.83873 7.84058 12.6798
N 5.73623 8.14887 13.3835
N 20.2069 16.4579 47.5614
N 9.31273 6.0108 0.146151
N 13.2155 15.2829 46.8566
N 12.6849 16.4315 47.3056
N 17.8319 14.3459 44.9853
N 8.10881 1.9194 -1.42991
N 10.7621 12.7969 46.8401
N 10.5024 13.3704 45.6541
O 4.97448 9.02981 28.5599
O 10.7598 10.6721 27.7755
O 11.5783 12.6844 28.3132
O 5.72193 10.3993 31.7543
O 7.36516 9.00565 31.1551
O 9.09022 7.25663 11.2208
O 10.3905 3.51057 10.4362
O 11.2091 5.52281 10.9739
O 9.83784 8.62609 14.4154
O 11.481 7.23244 13.816
O 14.5479 13.1031 45.8988
O 0.762823 2.52538 -2.91662
O 20.4602 16.3115 46.2934
O 4.16517 1.62312 0.651994
O 9.83123 5.1389 0.962877
O 16.2344 16.6346 44.6434
O 17.9569 13.0527 45.0572
O 18.3115 14.9612 43.9432
O 7.67219 2.59291 -0.404376
O 8.79277 0.833124 -1.20953
68
 Atoms. Timestep: 50105
C 9.39223 12.1111 29.0994
C 7.5393 11.2929 30.4852
C 8.71304 11.0607 29.7436
C 8.87157 13.4226 29.1939
C 17.733 12.607 30.5738
C 18.3905 13.6714 29.9339
C 9.02602 4.95069 11.759
C 7.17319 4.1324 13.1448
C 8.34689 3.90022 12.4031
C 8.50536 6.26211 11.8535
C 6.67888 5.44649 13.2336
C 7.33635 6.51094 12.5936
C 10.3251 4.66895 -3.25128
C 4.92784 0.61076 -1.39284
C 10.1357 4.89105 -1.871
C 14.4393 13.2049 47.1166
C 4.39324 1.51857 -2.32066
C 13.727 14.3206 47.5837
C 17.2676 15.0839 46.134
C 7.95768 2.22784 -2.70792
C 17.5632 14.5749 47.4097
C 16.4812 16.2522 46.0213
C 7.18982 3.39812 -2.83871
C 16.023 16.9125 47.1875
H 9.11288 10.0571 29.6735
H 16.8335 12.8033 31.1429
H 13.2307 8.28393 12.3331
H 5.77945 5.64278 13.8026
H 10.5519 4.19155 -1.15909
H 3.83787 2.37853 -1.97014
H 18.1732 13.6855 47.4899
H 6.83102 3.91546 -1.95734
N 10.596 11.8293 28.3517
N 6.85707 10.2025 31.1474
N 13.4056 9.61299 30.0177
N 12.3028 9.92003 30.721
N 10.2297 4.66892 11.0112
N 10.975 8.4293 13.8071
N 6.8354 7.83978 12.6774
N 5.73254 8.14678 13.3808
N 20.2164 16.4881 47.5918
N 4.74188 0.813707 0.0273563
N 13.2084 15.2526 46.6452
N 12.6502 16.4111 47.0288
N 17.7729 14.4074 44.9643
N 8.28815 1.70433 -1.4012
N 10.7569 12.7147 47.1539
N 10.3785 13.3126 46.0128
O 4.97028 9.03124 28.5591
O 10.7585 10.6731 27.7752
O 11.575 12.6867 28.3123
O 5.72044 10.3953 31.7534
O 7.36519 9.0034 31.1548
O 9.08801 7.25809 11.2187
O 10.3922 3.51267 10.4346
O 11.2088 5.52632 10.9717
O 9.83843 8.62206 14.4132
O 11.4831 7.23016 13.8144
O 14.5816 13.0504 45.8168
O 0.836825 2.64154 -2.82505
O 20.4146 16.2408 46.3296
O 4.09534 1.85196 0.47478
O 9.70233 5.35148 0.891902
O 16.1503 16.6974 44.8278
O 17.8859 13.1109 44.9498
O 18.2118 15.0838 43.9422
O 7.92304 2.33109 -0.319618
O 8.95826 0.594582 -1.2759
68
 Atoms. Timestep: 60110
C 9.38979 12.1103 29.0989
C 7.53665 11.2917 30.4845
C 8.7107 11.0597 29.7431
C 8.86896 13.4219 29.1928
C 17.7349 12.606 30.5727
C 18.3924 13.6706 29.9325
C 9.0262 4.95043 11.7577
C 7.17315 4.1318 13.1434
C 8.34715 3.8998 12.4019
C 8.50537 6.26197 11.8516
C 6.67862 5.44607 13.2316
C 7.33609 6.51069 12.5914
C 10.2784 4.76875 -3.33884
C 4.73257 0.865627 -1.6899
C 9.97658 5.11202 -2.00462
C 14.4566 13.2032 46.8999
C 4.27145 1.67863 -2.73788
C 13.7037 14.3478 47.2024
C 17.2799 15.119 46.2782
C 8.16831 1.87089 -2.56297
C 17.6792 14.4187 47.4295
C 16.4759 16.273 46.4171
C 7.3777 3.02632 -2.44386
C 6.94736 3.7336 -3.57088
H 9.11067 10.056 29.6735
H 16.8353 12.8022 31.1415
H 13.231 8.2833 12.3323
H 5.77898 5.64227 13.8005
H 10.3352 4.48283 -1.20139
H 3.70115 2.5693 -2.51319
H 18.2898 13.534 47.3192
H 7.08254 3.38605 -1.46581
N 10.5939 11.8286 28.3514
N 6.85455 10.2012 31.1469
N 13.4074 9.61231 30.0159
N 12.3042 9.91942 30.7189
N 10.2303 4.66875 11.0101
N 10.975 8.42843 13.8057
N 6.83497 7.83954 12.6748
N 5.73171 8.14662 13.3779
N 11.0793 3.58928 -3.60913
N 4.44072 1.20164 -0.313566
N 13.2557 15.1794 46.1411
N 12.6544 16.358 46.3644
N 17.6964 14.6479 44.9787
N 8.60324 1.14983 -1.38739
N 6.13478 4.88137 -3.35132
N 10.3495 13.2595 46.9303
O 4.9677 9.03075 28.558
O 10.7567 10.6722 27.7753
O 11.5727 12.6864 28.3118
O 5.71756 10.3939 31.7527
O 7.3628 9.00202 31.1547
O 9.08797 7.25803 11.2168
O 10.393 3.51232 10.4339
O 11.209 5.52649 10.9704
O 9.83804 8.62112 14.4117
O 11.4832 7.22923 13.8135
O 14.7164 12.9378 45.6368
O 0.947846 2.93225 -2.63485
O 20.3831 16.1207 46.4597
O 3.76342 2.27387 -0.016698
O 9.3324 5.82711 0.660984
O 16.0468 16.8977 45.3409
O 17.8552 13.375 44.7583
O 18.0147 15.4875 44.0361
O 8.28128 1.56242 -0.194914
O 3.11639 5.45815 -1.49372
68
 Atoms. Timestep: 70115
C 9.38781 12.1097 29.0988
C 7.53465 11.2914 30.4842
C 8.70873 11.0593 29.7431
C 8.86693 13.4211 29.1923
C 17.7362 12.6055 30.5719
C 18.3937 13.6699 29.9317
C 9.02623 4.95039 11.7566
C 7.17314 4.132 13.1421
C 8.34719 3.89994 12.401
C 8.50534 6.26178 11.8501
C 6.67855 5.44612 13.2299
C 7.33602 6.51054 12.5896
C 10.2585 4.81699 -3.29601
C 4.55378 0.983682 -1.83118
C 9.83308 5.22566 -2.01511
C 14.5294 13.1923 46.8577
C 4.18364 1.73609 -2.95793
C 13.7413 14.3412 47.0294
C 17.3489 15.1519 46.3328
C 8.23769 1.71293 -2.53333
C 17.7504 14.3643 47.426
C 16.5372 16.2868 46.563
C 7.43933 2.84891 -2.32352
C 7.0047 3.64034 -3.39091
H 9.10874 10.0557 29.6738
H 16.8365 12.8017 31.1405
H 13.2306 8.28295 12.3316
H 5.77888 5.64236 13.7985
H 10.1174 4.64125 -1.15079
H 3.58584 2.62825 -2.8337
H 18.3565 13.4873 47.2466
H 7.14485 3.12937 -1.31961
N 10.5919 11.8279 28.3516
N 6.85255 10.201 31.1466
N 13.4092 9.61205 30.0145
N 12.3058 9.91917 30.7172
N 10.2303 4.66865 11.0094
N 10.9745 8.42823 13.8045
N 6.83484 7.83926 12.6725
N 5.7315 8.14635 13.3752
N 11.0863 3.63193 -3.42903
N 4.12992 1.38093 -0.506526
N 13.3853 15.1112 45.8889
N 12.7472 16.2878 45.9918
N 17.7663 14.7842 44.9997
N 8.67593 0.90454 -1.41808
N 6.1849 4.76132 -3.08
N 10.396 13.2163 47.266
O 4.9662 9.0304 28.5573
O 10.7549 10.6714 27.7757
O 11.5705 12.6857 28.312
O 5.71554 10.3938 31.7522
O 7.36082 9.00197 31.1549
O 9.08796 7.25766 11.2152
O 10.3933 3.51217 10.4335
O 11.2089 5.52646 10.9697
O 9.8375 8.62093 14.4102
O 11.4827 7.22916 13.8127
O 14.9075 12.8661 45.6396
O 0.842339 3.01783 -2.37348
O 20.5207 16.1131 46.6815
O 3.31408 2.38161 -0.337675
O 9.03446 6.13074 0.548566
O 16.1056 16.9949 45.5409
O 17.964 13.5353 44.6912
O 18.0467 15.6947 44.1127
O 8.23472 1.13268 -0.214267
O 3.31387 5.32072 -1.59087
68
 Atoms. Timestep: 80120
C 9.38595 12.1092 29.0986
C 7.53274 11.2908 30.4839
C 8.70695 11.0588 29.743
C 8.86485 13.4205 29.1917
C 17.7373 12.6049 30.5713
C 18.3947 13.6692 29.9309
C 9.02631 4.95043 11.7565
C 7.17318 4.13202 13.1419
C 8.34736 3.9 12.401
C 8.50521 6.26175 11.8497
C 6.67837 5.44607 13.2294
C 7.33575 6.51047 12.589
C 10.2584 4.81745 -3.29048
C 4.54758 0.983072 -1.82934
C 9.82822 5.22532 -2.01093
C 14.5325 13.1927 46.8596
C 4.18051 1.73543 -2.95717
C 13.7425 14.3407 47.0289
C 17.3539 15.1529 46.3306
C 8.23773 1.71202 -2.53342
C 17.7537 14.3646 47.424
C 16.5403 16.2866 46.5601
C 7.43744 2.84675 -2.32435
C 7.00464 3.63892 -3.39196
H 9.10712 10.0553 29.674
H 16.8375 12.8011 31.1397
H 13.2304 8.28243 12.3319
H 5.77859 5.64227 13.7978
H 10.1104 4.64107 -1.14583
H 3.58087 2.62665 -2.83486
H 18.3611 13.4884 47.2452
H 7.14024 3.12579 -1.32085
N 10.5902 11.8275 28.3516
N 6.85072 10.2005 31.1464
N 13.4105 9.61198 30.0134
N 12.307 9.91905 30.7159
N 10.2305 4.66874 11.0095
N 10.9741 8.42764 13.8045
N 6.83436 7.83912 12.6715
N 5.73085 8.14616 13.374
N 11.0878 3.63316 -3.42102
N 4.11848 1.37922 -0.505997
N 13.3894 15.1105 45.8874
N 12.7489 16.2858 45.9882
N 17.7748 14.7869 44.9982
N 8.67431 0.903019 -1.418
N 6.18292 4.75871 -3.08186
N 10.3967 13.2151 47.2616
O 4.96458 9.03041 28.5567
O 10.7534 10.6709 27.776
O 11.5687 12.6854 28.3119
O 5.71362 10.3932 31.7518
O 7.35915 9.00152 31.155
O 9.08776 7.2576 11.2146
O 10.3937 3.51216 10.4339
O 11.209 5.52671 10.9698
O 9.837 8.62029 14.4099
O 11.4825 7.22865 13.8129
O 14.9152 12.8674 45.6427
O 0.836175 3.01816 -2.36413
O 20.5275 16.1152 46.6878
O 3.3081 2.38461 -0.338934
O 9.01209 6.12264 0.549702
O 16.1103 16.9951 45.5376
O 17.9744 13.5385 44.6889
O 18.0564 15.6986 44.1127
O 8.22714 1.12702 -0.215609
O 3.31312 5.32235 -1.58918
68
 Atoms. Timestep: 90126
C 9.38412 12.1087 29.0984
C 7.53092 11.2902 30.4836
C 8.70527 11.0583 29.7429
C 8.86273 13.42 29.1912
C 17.7383 12.6042 30.5707
C 18.3956 13.6686 29.9302
C 9.02639 4.95054 11.757
C 7.17326 4.13195 13.1423
C 8.34758 3.90007 12.4016
C 8.50499 6.26176 11.8499
C 6.67816 5.4459 13.2295
C 7.33539 6.51034 12.589
C 10.2588 4.81741 -3.28897
C 4.54719 0.982869 -1.8281
C 9.82806 5.22499 -2.00952
C 14.5328 13.1925 46.8586
C 4.17988 1.73499 -2.95601
C 13.742 14.34 47.0277
C 17.3543 15.1526 46.3294
C 8.23855 1.71232 -2.53224
C 17.7545 14.3646 47.4227
C 16.54 16.2858 46.5588
C 7.43749 2.84652 -2.32323
C 7.00438 3.63849 -3.39086
H 9.10567 10.0549 29.6741
H 16.8384 12.8003 31.1389
H 13.2303 8.28195 12.3327
H 5.77827 5.642 13.7978
H 10.1104 4.6409 -1.14436
H 3.57958 2.62578 -2.83384
H 18.3626 13.4889 47.2441
H 7.13996 3.1253 -1.31976
N 10.5885 11.8272 28.3516
N 6.84906 10.1999 31.1462
N 13.4116 9.61184 30.0125
N 12.3079 9.91878 30.7147
N 10.2307 4.66899 11.0102
N 10.9738 8.4269 13.805
N 6.83369 7.83889 12.6712
N 5.73 8.14579 13.3735
N 11.089 3.63364 -3.41934
N 4.11751 1.37873 -0.504849
N 13.3886 15.1094 45.8861
N 12.747 16.2842 45.9868
N 17.7756 14.7869 44.997
N 8.67546 0.903527 -1.4168
N 6.18191 4.75775 -3.08082
N 10.3955 13.214 47.2603
O 4.96285 9.03055 28.5561
O 10.7521 10.6705 27.7762
O 11.5668 12.6854 28.3118
O 5.71186 10.3924 31.7515
O 7.35775 9.00099 31.155
O 9.08741 7.25764 11.2148
O 10.3943 3.51233 10.4348
O 11.209 5.5272 10.9704
O 9.83661 8.61939 14.4103
O 11.4825 7.22802 13.8137
O 14.916 12.8674 45.6418
O 0.834754 3.0192 -2.36236
O 20.5283 16.1149 46.6871
O 3.30722 2.3842 -0.337902
O 9.01002 6.1212 0.550883
O 16.1097 16.9941 45.5363
O 17.9761 13.5386 44.6877
O 18.0566 15.6988 44.1115
O 8.2278 1.12703 -0.214495
O 3.31134 5.32288 -1.58787
68
 Atoms. Timestep: 94852
C 9.38388 12.1089 29.0985
C 7.53093 11.29 30.4837
C 8.70505 11.0582 29.7431
C 8.86282 13.4202 29.1911
C 17.7386 12.604 30.5705
C 18.3959 13.6686 29.93
C 9.02616 4.95066 11.7571
C 7.17327 4.13176 13.1423
C 8.34736 3.90002 12.4018
C 8.50508 6.26195 11.8498
C 6.67845 5.4458 13.2293
C 7.33573 6.51039 12.5886
C 10.2589 4.81763 -3.28887
C 4.54703 0.98252 -1.82806
C 9.82801 5.22496 -2.00941
C 14.533 13.1926 46.8586
C 4.17975 1.73451 -2.95608
C 13.7421 14.3397 47.0277
C 17.3545 15.1529 46.3294
C 8.2386 1.71251 -2.53215
C 17.7547 14.365 47.4228
C 16.5401 16.2858 46.5588
C 7.43744 2.84637 -2.32316
C 7.00438 3.63821 -3.39083
H 9.10521 10.0548 29.6745
H 16.8389 12.8001 31.1387
H 13.2299 8.28184 12.3331
H 5.77875 5.64178 13.7974
H 10.1103 4.64097 -1.14418
H 3.57932 2.62501 -2.83397
H 18.3629 13.4896 47.2441
H 7.13984 3.12494 -1.31965
N 10.588 11.8274 28.3519
N 6.84908 10.1995 31.1464
N 13.4123 9.61193 30.0119
N 12.3087 9.9188 30.714
N 10.2302 4.66922 11.0104
N 10.9738 8.42655 13.8051
N 6.83435 7.83898 12.6706
N 5.73079 8.14582 13.3727
N 11.0891 3.63418 -3.41916
N 4.11723 1.37813 -0.504816
N 13.3886 15.109 45.8859
N 12.7465 16.2835 45.9865
N 17.7758 14.7874 44.9969
N 8.67543 0.903844 -1.41664
N 6.1818 4.75716 -3.08079
N 10.3954 13.2133 47.2603
O 4.96298 9.03087 28.5559
O 10.7515 10.6706 27.7767
O 11.5661 12.6859 28.312
O 5.71204 10.3919 31.7516
O 7.35748 9.00056 31.1555
O 9.08754 7.25797 11.2145
O 10.3937 3.51241 10.4352
O 11.2083 5.52776 10.9705
O 9.83679 8.61891 14.4103
O 11.4822 7.22759 13.8141
O 14.9165 12.8678 45.6418
O 0.835218 3.02021 -2.36208
O 20.5282 16.1153 46.6873
O 3.30725 2.38367 -0.337915
O 9.00922 6.12048 0.550982
O 16.1097 16.9939 45.5362
O 17.9765 13.5391 44.6877
O 18.0564 15.6995 44.1113
O 8.2277 1.12697 -0.214358
O 3.31141 5.3235 -1.58772
68
 Atoms. Timestep: 94857
C 9.38232 12.1083 29.0982
C 7.52914 11.2896 30.4833
C 8.70363 11.0578 29.7428
C 8.86065 13.4195 29.1908
C 17.7393 12.6035 30.5701
C 18.3965 13.6679 29.9296
C 9.02646 4.95066 11.7576
C 7.17335 4.13188 13.1427
C 8.3478 3.90015 12.4022
C 8.50477 6.26179 11.8502
C 6.67795 5.44574 13.2297
C 7.33503 6.51021 12.5891
C 10.2592 4.81735 -3.2877
C 4.54702 0.982727 -1.82697
C 9.82806 5.22468 -2.00829
C 14.533 13.1922 46.8574
C 4.17936 1.7346 -2.95493
C 13.7415 14.3392 47.0265
C 17.3546 15.1524 46.3282
C 8.23938 1.71262 -2.53102
C 17.7552 14.3646 47.4216
C 16.5396 16.2851 46.5576
C 7.43763 2.84634 -2.32203
C 7.00413 3.63809 -3.38966
H 9.10425 10.0545 29.6742
H 16.8393 12.7995 31.1382
H 13.2302 8.28146 12.3336
H 5.77795 5.64172 13.7978
H 10.1107 4.64077 -1.14311
H 3.57846 2.62499 -2.83283
H 18.3639 13.4892 47.2429
H 7.13986 3.1249 -1.31856
N 10.5868 11.8269 28.3516
N 6.84744 10.1992 31.146
N 13.4127 9.61172 30.0115
N 12.3088 9.91851 30.7135
N 10.2309 4.66925 11.0109
N 10.9735 8.42614 13.8055
N 6.83302 7.83866 12.671
N 5.72916 8.14543 13.3731
N 11.0901 3.63408 -3.41798
N 4.11697 1.37835 -0.503767
N 13.3876 15.1085 45.8848
N 12.745 16.2827 45.9854
N 17.7761 14.7869 44.9959
N 8.67668 0.904039 -1.41558
N 6.18097 4.75687 -3.07963
N 10.3942 13.2129 47.2591
O 4.96116 9.03071 28.5556
O 10.7507 10.6702 27.7764
O 11.5649 12.6853 28.3117
O 5.71013 10.3916 31.7511
O 7.35639 9.00045 31.1551
O 9.08706 7.2577 11.215
O 10.3948 3.51254 10.4357
O 11.209 5.52769 10.971
O 9.83621 8.61848 14.4106
O 11.4824 7.22738 13.8145
O 14.9167 12.8675 45.6407
O 0.833424 3.02019 -2.36094
O 20.529 16.1146 46.6862
O 3.30649 2.38368 -0.336886
O 9.0088 6.12013 0.551985
O 16.1089 16.9931 45.5351
O 17.9774 13.5387 44.6867
O 18.0565 15.6988 44.1103
O 8.22874 1.12718 -0.213313
O 3.30953 5.32327 -1.58662
68
 Atoms. Timestep: 100000
C 9.38209 12.1084 29.0983
C 7.52913 11.2894 30.4834
C 8.7034 11.0578 29.7431
C 8.86076 13.4196 29.1906
C 17.7396 12.6034 30.57
C 18.3968 13.668 29.9292
C 9.02623 4.95074 11.7576
C 7.17334 4.13173 13.1428
C 8.34757 3.90009 12.4024
C 8.50488 6.26194 11.8499
C 6.67825 5.44568 13.2294
C 7.33538 6.51028 12.5886
C 10.2593 4.81755 -3.28769
C 4.54677 0.982215 -1.82702
C 9.828 5.22455 -2.00829
C 14.5333 13.1923 46.8574
C 4.17918 1.734 -2.95508
C 13.7415 14.3389 47.0264
C 17.3547 15.1528 46.3283
C 8.23946 1.71287 -2.53082
C 17.7554 14.3651 47.4218
C 16.5396 16.2851 46.5578
C 7.43753 2.84618 -2.32181
C 7.00403 3.63782 -3.38946
H 9.10376 10.0544 29.6747
H 16.8398 12.7993 31.1379
H 13.2298 8.28134 12.334
H 5.77843 5.64159 13.7974
H 10.1106 4.64069 -1.14304
H 3.5781 2.62407 -2.83304
H 18.3643 13.4901 47.2431
H 7.13968 3.12449 -1.31831
N 10.5864 11.827 28.3518
N 6.84743 10.1989 31.1463
N 13.4134 9.61185 30.0108
N 12.3096 9.91861 30.7127
N 10.2305 4.66939 11.0111
N 10.9735 8.42587 13.8057
N 6.83372 7.83879 12.6703
N 5.72999 8.14553 13.3721
N 11.0904 3.63465 -3.4179
N 4.11647 1.37748 -0.503837
N 13.3877 15.108 45.8846
N 12.7444 16.2818 45.9851
N 17.7763 14.7876 44.9959
N 8.67674 0.904412 -1.41534
N 6.1807 4.75622 -3.07939
N 10.394 13.2122 47.2594
O 4.96132 9.03097 28.5552
O 10.7501 10.6701 27.777
O 11.5642 12.6858 28.3118
O 5.71028 10.3912 31.7513
O 7.35605 9.00009 31.1556
O 9.08722 7.25796 11.2146
O 10.3942 3.51249 10.4362
O 11.2083 5.52815 10.971
O 9.83637 8.61812 14.4107
O 11.4821 7.22701 13.8149
O 14.9173 12.8679 45.6407
O 0.834369 3.02145 -2.36078
O 20.5287 16.1148 46.6863
O 3.30652 2.38306 -0.336975
O 9.00744 6.11886 0.551946
O 16.1088 16.993 45.5352
O 17.9782 13.5394 44.6868
O 18.056 15.6998 44.1102
O 8.22871 1.12711 -0.213085
O 3.3098 5.32403 -1.58641
68
 Atoms. Timestep: 104862
C 9.38055 12.1079 29.098
C 7.52737 11.289 30.483
C 8.70199 11.0574 29.7427
C 8.8586 13.4189 29.1903
C 17.7403 12.6028 30.5696
C 18.3973 13.6673 29.9289
C 9.02652 4.95075 11.7581
C 7.17342 4.13186 13.1432
C 8.34801 3.90022 12.4028
C 8.50457 6.26178 11.8504
C 6.67775 5.44563 13.2298
C 7.33469 6.51011 12.5891
C 10.2596 4.81726 -3.28655
C 4.54676 0.982427 -1.82596
C 9.82804 5.22426 -2.0072
C 14.5333 13.192 46.8562
C 4.17879 1.73409 -2.95396
C 13.7409 14.3384 47.0252
C 17.3549 15.1522 46.3272
C 8.24022 1.71299 -2.52972
C 17.756 14.3647 47.4206
C 16.5391 16.2844 46.5566
C 7.4377 2.84615 -2.32071
C 7.00377 3.6377 -3.38832
H 9.10281 10.0541 29.6744
H 16.8402 12.7987 31.1375
H 13.2301 8.28095 12.3344
H 5.77764 5.64154 13.7977
H 10.1109 4.64048 -1.142
H 3.57725 2.62405 -2.83193
H 18.3652 13.4898 47.2419
H 7.13969 3.12446 -1.31725
N 10.5852 11.8265 28.3516
N 6.84581 10.1987 31.1459
N 13.4138 9.61165 30.0105
N 12.3097 9.91835 30.7123
N 10.2311 4.66943 11.0116
N 10.9732 8.42547 13.806
N 6.8324 7.83848 12.6707
N 5.72837 8.14514 13.3725
N 11.0913 3.63454 -3.41674
N 4.11621 1.37771 -0.502816
N 13.3867 15.1075 45.8835
N 12.7429 16.281 45.984
N 17.7766 14.787 44.9949
N 8.67797 0.904613 -1.4143
N 6.17987 4.75593 -3.07826
N 10.3929 13.2119 47.2582
O 4.95954 9.03082 28.5549
O 10.7494 10.6697 27.7767
O 11.563 12.6852 28.3116
O 5.7084 10.3909 31.7508
O 7.35498 9 31.1552
O 9.08673 7.25769 11.2151
O 10.3953 3.51262 10.4367
O 11.209 5.52808 10.9715
O 9.83579 8.6177 14.411
O 11.4823 7.2268 13.8153
O 14.9175 12.8676 45.6396
O 0.832598 3.02143 -2.35967
O 20.5294 16.1141 46.6852
O 3.30577 2.38307 -0.335974
O 9.00701 6.11851 0.552923
O 16.1079 16.9922 45.5342
O 17.979 13.539 44.6858
O 18.0561 15.6992 44.1092
O 8.22973 1.12733 -0.212067
O 3.30793 5.32379 -1.58534
68
 Atoms. Timestep: 114875
C 9.37767 12.1067 29.0972
C 7.52431 11.2878 30.482
C 8.6992 11.0562 29.7421
C 8.85518 13.4176 29.1892
C 17.7415 12.6014 30.5682
C 18.3983 13.6659 29.9275
C 9.02662 4.95057 11.7594
C 7.17334 4.13157 13.1443
C 8.3482 3.90002 12.4043
C 8.50413 6.26149 11.8514
C 6.67718 5.44516 13.2306
C 7.3339 6.50971 12.5898
C 10.2604 4.81709 -3.28337
C 4.54658 0.982152 -1.823
C 9.82821 5.22375 -2.00414
C 14.533 13.1908 46.8528
C 4.17813 1.73357 -2.95093
C 13.7396 14.3366 47.0217
C 17.3546 15.1511 46.3243
C 8.24154 1.71334 -2.52627
C 17.7564 14.3638 47.4175
C 16.5379 16.2827 46.5537
C 7.43799 2.84589 -2.31722
C 7.0034 3.63728 -3.38473
H 9.10046 10.053 29.6739
H 16.8411 12.7972 31.1359
H 13.2301 8.28005 12.3361
H 5.77684 5.641 13.7983
H 10.1115 4.64008 -1.13902
H 3.57575 2.62306 -2.82896
H 18.3665 13.4893 47.2389
H 7.13965 3.12394 -1.31382
N 10.5826 11.8255 28.351
N 6.84289 10.1974 31.145
N 13.4149 9.61099 30.0088
N 12.3106 9.91741 30.7102
N 10.2315 4.66937 11.0132
N 10.9725 8.42433 13.8073
N 6.83105 7.83799 12.6711
N 5.7268 8.14438 13.3726
N 11.0931 3.635 -3.41352
N 4.11544 1.37706 -0.499993
N 13.3848 15.1055 45.8801
N 12.7396 16.2783 45.9806
N 17.7767 14.7861 44.992
N 8.67992 0.905162 -1.41098
N 6.17855 4.75485 -3.07464
N 10.3904 13.2098 47.2554
O 4.95667 9.0304 28.5537
O 10.7472 10.6685 27.7765
O 11.5603 12.6844 28.311
O 5.70541 10.3894 31.7496
O 7.35242 8.99888 31.1546
O 9.08616 7.25745 11.216
O 10.3962 3.51241 10.4386
O 11.2092 5.52826 10.9731
O 9.83509 8.61636 14.412
O 11.4821 7.22586 13.8169
O 14.9178 12.8668 45.6363
O 0.830741 3.02263 -2.35649
O 20.5299 16.1126 46.6818
O 3.30485 2.38225 -0.333187
O 9.00525 6.11678 0.55565
O 16.1062 16.9902 45.5313
O 17.9805 13.5382 44.683
O 18.0553 15.6985 44.1062
O 8.23136 1.12739 -0.208832
O 3.30522 5.32426 -1.58201
68
 Atoms. Timestep: 123824
C 9.37732 12.1067 29.0974
C 7.52426 11.2876 30.4822
C 8.69887 11.0561 29.7424
C 8.85538 13.4178 29.1889
C 17.7419 12.6014 30.568
C 18.3988 13.666 29.927
C 9.02628 4.9506 11.7594
C 7.1733 4.13142 13.1443
C 8.34787 3.89995 12.4044
C 8.50433 6.26162 11.851
C 6.67759 5.4452 13.2302
C 7.33447 6.50979 12.5892
C 10.2607 4.81736 -3.28383
C 4.54648 0.981313 -1.82326
C 9.82834 5.22346 -2.00448
C 14.5335 13.1909 46.8523
C 4.17801 1.73268 -2.95131
C 13.7397 14.3362 47.0212
C 17.3547 15.1518 46.3247
C 8.24162 1.71373 -2.52562
C 17.7566 14.3646 47.418
C 16.5377 16.2828 46.5543
C 7.43787 2.84574 -2.31646
C 7.00324 3.63695 -3.38398
H 9.0997 10.0528 29.6746
H 16.8418 12.7972 31.1356
H 13.2293 8.27988 12.3367
H 5.7775 5.64098 13.7978
H 10.1116 4.63986 -1.13928
H 3.57541 2.62174 -2.82932
H 18.367 13.4906 47.2392
H 7.1395 3.12337 -1.31292
N 10.5819 11.8255 28.3514
N 6.84281 10.1971 31.1454
N 13.416 9.6111 30.0078
N 12.3118 9.9177 30.7091
N 10.2308 4.66942 11.0133
N 10.9725 8.42411 13.8075
N 6.83218 7.83811 12.67
N 5.72804 8.14468 13.3713
N 11.0937 3.63579 -3.41401
N 4.11509 1.37566 -0.50015
N 13.3849 15.1049 45.8795
N 12.7388 16.2771 45.98
N 17.7767 14.7872 44.9922
N 8.68002 0.905682 -1.41028