# data_ID_15

68 atoms
4 atom types
68 bonds
100 angles
136 dihedrals
96 impropers


7 bond types
8 angle types
3 dihedral types
1 improper types

0.000000   39.941949   xlo xhi
0.000000    6.053085   ylo yhi
0.000000    6.057358   zlo zhi

  1.000374   -1.320990   -0.854978   xy xz yz

Atoms

1  1  1 0.362833 21.963500 6.765727 -5.016845
2  1  1 0.362833 22.328183 8.260024 -3.153648
3  1  1 0.362833 21.505694 7.776059 -4.170949
4  1  1 0.362833 23.243766 6.239587 -4.845525
5  1  1 0.362833 23.608451 7.733518 -2.982251
6  1  1 0.341367 24.066247 6.723255 -3.828075
7  1  1 -0.128654 12.170841 5.376187 -1.765271
8  1  1 0.082228 12.535525 6.870484 0.097926
9  1  1 -0.080598 11.713036 6.386519 -0.919375
10  1  1 0.324103 13.451107 4.850046 -1.593951
11  1  1 0.362833 13.815792 6.343977 0.269323
12  1  1 0.341367 14.273588 5.333714 -0.576501
13  1  1 -0.128654 34.025819 9.702811 -8.266804
14  1  1 0.082228 34.390503 11.197108 -6.403607
15  1  1 -0.080598 33.568014 10.713144 -7.420908
16  1  1 0.324103 35.306085 9.176671 -8.095484
17  1  1 0.362833 35.670771 10.670602 -6.232210
18  1  1 0.341367 36.128567 9.660339 -7.078034
19  1  1 -0.128654 2.753413 1.730756 2.484200
20  1  1 0.082228 3.118097 3.225053 4.347397
21  1  1 -0.080598 2.295607 2.741088 3.330095
22  1  1 0.324103 4.033679 1.204615 2.655520
23  1  1 0.362833 4.398364 2.698547 4.518794
24  1  1 0.341367 4.856160 1.688284 3.672969
25  1  2 -0.128654 20.509207 8.193218 -4.296274
26  1  2 0.082228 24.269876 8.093209 -2.196999
27  1  2 -0.080598 10.716548 6.803678 -1.044700
28  1  2 0.324103 14.477217 6.703669 1.054575
29  1  2 -0.071561 32.571526 11.130303 -7.546233
30  1  2 -0.071561 36.332196 11.030293 -5.446958
31  1  2 -0.071561 1.299120 3.158247 3.204770
32  1  2 -0.071561 5.059789 3.058238 5.304046
33  1  3 -0.071561 21.076642 6.310573 -6.040494
34  1  3 -0.069518 21.862719 9.288891 -2.292763
35  1  3 -0.173863 25.345583 6.232945 -3.618571
36  1  3 0.112633 26.348152 5.848596 -3.454114
37  1  3 -0.071561 11.283983 4.921033 -2.788920
38  1  3 -0.069518 12.070060 7.899351 0.958811
39  1  3 -0.173863 15.552924 4.843405 -0.366997
40  1  3 0.112633 16.555493 4.459056 -0.202540
41  1  3 -0.071561 33.138962 9.247657 -9.290453
42  1  3 -0.069518 33.925039 12.225975 -5.542722
43  1  3 -0.173863 37.407903 9.170029 -6.868530
44  1  3 0.112633 38.410472 8.785680 -6.704073
45  1  3 -0.071561 1.866555 1.275602 1.460550
46  1  3 -0.069518 2.652632 4.253920 5.208281
47  1  3 -0.173863 6.135496 1.197974 3.882474
48  1  3 0.112633 7.138065 0.813625 4.046930
49  1  4 -0.071561 23.674175 5.308007 -5.620788
50  1  4 -0.069518 19.944381 6.833839 -6.128517
51  1  4 -0.173863 21.465403 5.405783 -6.811309
52  1  4 0.112633 22.619024 9.710219 -1.384570
53  1  4 -0.071561 20.707959 9.749024 -2.464137
54  1  4 -0.069518 13.881516 3.918467 -2.369214
55  1  4 -0.173863 10.151722 5.444299 -2.876943
56  1  4 0.112633 11.672744 4.016243 -3.559735
57  1  4 -0.071561 12.826366 8.320679 1.867004
58  1  4 -0.069518 10.915301 8.359484 0.787437
59  1  4 -0.173863 35.736495 8.245091 -8.870747
60  1  4 0.112633 32.006701 9.770923 -9.378476
61  1  4 -0.071561 33.527723 8.342867 -10.061268
62  1  4 -0.069518 34.681344 12.647303 -4.634529
63  1  4 -0.173863 32.770279 12.686108 -5.714096
64  1  4 0.112633 4.464088 0.273036 1.880257
65  1  4 -0.302271 0.734294 1.798868 1.372527
66  1  4 -0.235574 2.255316 0.370812 0.689736
67  1  4 -0.179793 3.408937 4.675248 6.116475
68  1  4 -0.236393 1.497872 4.714053 5.036908
Masses

    1    12.010700000 # C_R
    2     1.007940000 # H_
    3    14.006700000 # N_R
    4    14.006700000 # N_2

Bond Coeffs

    1      462.655054        1.379256  # C_R C_R
    2      561.491352        1.422196  # C_R N_R
    3      357.440381        1.081418  # C_R H_
    4      646.680887        1.311940  # C_R O_R
    5      578.340382        1.408249  # C_R N_2
    6      884.941708        1.299717  # N_R O_R
    7      891.177974        1.341000  # N_2 N_1

Angle Coeffs

    1      111.297508              -1               3 # C_R C_R C_R
    2      141.337441              -1               3 # C_R C_R N_R
    3       57.289016              -1               3 # C_R C_R H_
    4      144.065775              -1               3 # C_R C_R O_R
    5      143.493294              -1               3 # C_R C_R N_2
    6      138.990244              -1               3 # C_R N_R O_R
    7      192.465780              -1               3 # O_R N_R O_R
    8      182.341381              -1               3 # C_R N_2 N_1

Dihedral Coeffs

    1        3.368555              -1               2 # C_R C_R C_R C_R
    2        1.250000              -1               2 # C_R C_R N_R O_R
    3        2.500000              -1               2 # C_R C_R N_2 N_1

Improper Coeffs

    1        2.000000        1.000000       -1.000000        0.000000               0 # C_R C_R C_R N_R

Pair Coeffs

    1        0.105000        3.430851 # C_R C_R
    2        0.044000        2.571134 # H_ H_
    3        0.069000        3.260689 # N_R N_R
    4        0.069000        3.260689 # N_2 N_2

Bonds

       1        1        1        3
       2        1        1        4
       3        2        1       33
       4        1        2        3
       5        1        2        5
       6        2        2       34
       7        3        3       25
       8        1        4        6
       9        4        4       49
      10        1        5        6
      11        3        5       26
      12        5        6       35
      13        1        7        9
      14        1        7       10
      15        2        7       37
      16        1        8        9
      17        1        8       11
      18        2        8       38
      19        3        9       27
      20        1       10       12
      21        4       10       54
      22        1       11       12
      23        3       11       28
      24        5       12       39
      25        1       13       15
      26        1       13       16
      27        2       13       41
      28        1       14       15
      29        1       14       17
      30        2       14       42
      31        3       15       29
      32        1       16       18
      33        4       16       59
      34        1       17       18
      35        3       17       30
      36        5       18       43
      37        1       19       21
      38        1       19       22
      39        2       19       45
      40        1       20       21
      41        1       20       23
      42        2       20       46
      43        3       21       31
      44        1       22       24
      45        4       22       64
      46        1       23       24
      47        3       23       32
      48        5       24       47
      49        6       33       50
      50        6       33       51
      51        6       34       52
      52        6       34       53
      53        7       35       36
      54        6       37       55
      55        6       37       56
      56        6       38       57
      57        6       38       58
      58        7       39       40
      59        6       41       60
      60        6       41       61
      61        6       42       62
      62        6       42       63
      63        7       43       44
      64        6       45       65
      65        6       45       66
      66        6       46       67
      67        6       46       68
      68        7       47       48

Angles

       1        1        3        1        4
       2        2        3        1       33
       3        2        4        1       33
       4        1        3        2        5
       5        2        3        2       34
       6        2        5        2       34
       7        1        1        3        2
       8        3        1        3       25
       9        3        2        3       25
      10        1        1        4        6
      11        4        1        4       49
      12        4        6        4       49
      13        1        2        5        6
      14        3        2        5       26
      15        3        6        5       26
      16        1        4        6        5
      17        5        4        6       35
      18        5        5        6       35
      19        1        9        7       10
      20        2        9        7       37
      21        2       10        7       37
      22        1        9        8       11
      23        2        9        8       38
      24        2       11        8       38
      25        1        7        9        8
      26        3        7        9       27
      27        3        8        9       27
      28        1        7       10       12
      29        4        7       10       54
      30        4       12       10       54
      31        1        8       11       12
      32        3        8       11       28
      33        3       12       11       28
      34        1       10       12       11
      35        5       10       12       39
      36        5       11       12       39
      37        1       15       13       16
      38        2       15       13       41
      39        2       16       13       41
      40        1       15       14       17
      41        2       15       14       42
      42        2       17       14       42
      43        1       13       15       14
      44        3       13       15       29
      45        3       14       15       29
      46        1       13       16       18
      47        4       13       16       59
      48        4       18       16       59
      49        1       14       17       18
      50        3       14       17       30
      51        3       18       17       30
      52        1       16       18       17
      53        5       16       18       43
      54        5       17       18       43
      55        1       21       19       22
      56        2       21       19       45
      57        2       22       19       45
      58        1       21       20       23
      59        2       21       20       46
      60        2       23       20       46
      61        1       19       21       20
      62        3       19       21       31
      63        3       20       21       31
      64        1       19       22       24
      65        4       19       22       64
      66        4       24       22       64
      67        1       20       23       24
      68        3       20       23       32
      69        3       24       23       32
      70        1       22       24       23
      71        5       22       24       47
      72        5       23       24       47
      73        6        1       33       50
      74        6        1       33       51
      75        7       50       33       51
      76        6        2       34       52
      77        6        2       34       53
      78        7       52       34       53
      79        8        6       35       36
      80        6        7       37       55
      81        6        7       37       56
      82        7       55       37       56
      83        6        8       38       57
      84        6        8       38       58
      85        7       57       38       58
      86        8       12       39       40
      87        6       13       41       60
      88        6       13       41       61
      89        7       60       41       61
      90        6       14       42       62
      91        6       14       42       63
      92        7       62       42       63
      93        8       18       43       44
      94        6       19       45       65
      95        6       19       45       66
      96        7       65       45       66
      97        6       20       46       67
      98        6       20       46       68
      99        7       67       46       68
     100        8       24       47       48

Dihedrals

       1        1        4        1        3        2
       2        1        4        1        3       25
       3        1       33        1        3        2
       4        1       33        1        3       25
       5        1        3        1        4        6
       6        1        3        1        4       49
       7        1       33        1        4        6
       8        1       33        1        4       49
       9        2        3        1       33       50
      10        2        3        1       33       51
      11        2        4        1       33       50
      12        2        4        1       33       51
      13        1        5        2        3        1
      14        1        5        2        3       25
      15        1       34        2        3        1
      16        1       34        2        3       25
      17        1        3        2        5        6
      18        1        3        2        5       26
      19        1       34        2        5        6
      20        1       34        2        5       26
      21        2        3        2       34       52
      22        2        3        2       34       53
      23        2        5        2       34       52
      24        2        5        2       34       53
      25        1        1        4        6        5
      26        1        1        4        6       35
      27        1       49        4        6        5
      28        1       49        4        6       35
      29        1        2        5        6        4
      30        1        2        5        6       35
      31        1       26        5        6        4
      32        1       26        5        6       35
      33        3        4        6       35       36
      34        3        5        6       35       36
      35        1       10        7        9        8
      36        1       10        7        9       27
      37        1       37        7        9        8
      38        1       37        7        9       27
      39        1        9        7       10       12
      40        1        9        7       10       54
      41        1       37        7       10       12
      42        1       37        7       10       54
      43        2        9        7       37       55
      44        2        9        7       37       56
      45        2       10        7       37       55
      46        2       10        7       37       56
      47        1       11        8        9        7
      48        1       11        8        9       27
      49        1       38        8        9        7
      50        1       38        8        9       27
      51        1        9        8       11       12
      52        1        9        8       11       28
      53        1       38        8       11       12
      54        1       38        8       11       28
      55        2        9        8       38       57
      56        2        9        8       38       58
      57        2       11        8       38       57
      58        2       11        8       38       58
      59        1        7       10       12       11
      60        1        7       10       12       39
      61        1       54       10       12       11
      62        1       54       10       12       39
      63        1        8       11       12       10
      64        1        8       11       12       39
      65        1       28       11       12       10
      66        1       28       11       12       39
      67        3       10       12       39       40
      68        3       11       12       39       40
      69        1       16       13       15       14
      70        1       16       13       15       29
      71        1       41       13       15       14
      72        1       41       13       15       29
      73        1       15       13       16       18
      74        1       15       13       16       59
      75        1       41       13       16       18
      76        1       41       13       16       59
      77        2       15       13       41       60
      78        2       15       13       41       61
      79        2       16       13       41       60
      80        2       16       13       41       61
      81        1       17       14       15       13
      82        1       17       14       15       29
      83        1       42       14       15       13
      84        1       42       14       15       29
      85        1       15       14       17       18
      86        1       15       14       17       30
      87        1       42       14       17       18
      88        1       42       14       17       30
      89        2       15       14       42       62
      90        2       15       14       42       63
      91        2       17       14       42       62
      92        2       17       14       42       63
      93        1       13       16       18       17
      94        1       13       16       18       43
      95        1       59       16       18       17
      96        1       59       16       18       43
      97        1       14       17       18       16
      98        1       14       17       18       43
      99        1       30       17       18       16
     100        1       30       17       18       43
     101        3       16       18       43       44
     102        3       17       18       43       44
     103        1       22       19       21       20
     104        1       22       19       21       31
     105        1       45       19       21       20
     106        1       45       19       21       31
     107        1       21       19       22       24
     108        1       21       19       22       64
     109        1       45       19       22       24
     110        1       45       19       22       64
     111        2       21       19       45       65
     112        2       21       19       45       66
     113        2       22       19       45       65
     114        2       22       19       45       66
     115        1       23       20       21       19
     116        1       23       20       21       31
     117        1       46       20       21       19
     118        1       46       20       21       31
     119        1       21       20       23       24
     120        1       21       20       23       32
     121        1       46       20       23       24
     122        1       46       20       23       32
     123        2       21       20       46       67
     124        2       21       20       46       68
     125        2       23       20       46       67
     126        2       23       20       46       68
     127        1       19       22       24       23
     128        1       19       22       24       47
     129        1       64       22       24       23
     130        1       64       22       24       47
     131        1       20       23       24       22
     132        1       20       23       24       47
     133        1       32       23       24       22
     134        1       32       23       24       47
     135        3       22       24       47       48
     136        3       23       24       47       48

Impropers

       1        1        1        3        4       33
       2        1        1        4        3       33
       3        1        1       33        3        4
       4        1        2        3        5       34
       5        1        2        5        3       34
       6        1        2       34        3        5
       7        1        3        1        2       25
       8        1        3        2        1       25
       9        1        3       25        1        2
      10        1        4        1        6       49
      11        1        4        6        1       49
      12        1        4       49        1        6
      13        1        5        2        6       26
      14        1        5        6        2       26
      15        1        5       26        2        6
      16        1        6        4        5       35
      17        1        6        5        4       35
      18        1        6       35        4        5
      19        1        7        9       10       37
      20        1        7       10        9       37
      21        1        7       37        9       10
      22        1        8        9       11       38
      23        1        8       11        9       38
      24        1        8       38        9       11
      25        1        9        7        8       27
      26        1        9        8        7       27
      27        1        9       27        7        8
      28        1       10        7       12       54
      29        1       10       12        7       54
      30        1       10       54        7       12
      31        1       11        8       12       28
      32        1       11       12        8       28
      33        1       11       28        8       12
      34        1       12       10       11       39
      35        1       12       11       10       39
      36        1       12       39       10       11
      37        1       13       15       16       41
      38        1       13       16       15       41
      39        1       13       41       15       16
      40        1       14       15       17       42
      41        1       14       17       15       42
      42        1       14       42       15       17
      43        1       15       13       14       29
      44        1       15       14       13       29
      45        1       15       29       13       14
      46        1       16       13       18       59
      47        1       16       18       13       59
      48        1       16       59       13       18
      49        1       17       14       18       30
      50        1       17       18       14       30
      51        1       17       30       14       18
      52        1       18       16       17       43
      53        1       18       17       16       43
      54        1       18       43       16       17
      55        1       19       21       22       45
      56        1       19       22       21       45
      57        1       19       45       21       22
      58        1       20       21       23       46
      59        1       20       23       21       46
      60        1       20       46       21       23
      61        1       21       19       20       31
      62        1       21       20       19       31
      63        1       21       31       19       20
      64        1       22       19       24       64
      65        1       22       24       19       64
      66        1       22       64       19       24
      67        1       23       20       24       32
      68        1       23       24       20       32
      69        1       23       32       20       24
      70        1       24       22       23       47
      71        1       24       23       22       47
      72        1       24       47       22       23
      73        1       33        1       50       51
      74        1       33       50        1       51
      75        1       33       51        1       50
      76        1       34        2       52       53
      77        1       34       52        2       53
      78        1       34       53        2       52
      79        1       37        7       55       56
      80        1       37       55        7       56
      81        1       37       56        7       55
      82        1       38        8       57       58
      83        1       38       57        8       58
      84        1       38       58        8       57
      85        1       41       13       60       61
      86        1       41       60       13       61
      87        1       41       61       13       60
      88        1       42       14       62       63
      89        1       42       62       14       63
      90        1       42       63       14       62
      91        1       45       19       65       66
      92        1       45       65       19       66
      93        1       45       66       19       65
      94        1       46       20       67       68
      95        1       46       67       20       68
      96        1       46       68       20       67
