68
 Atoms. Timestep: 0
C 19.6421 -0.142336 1.04051
C 20.0068 1.35196 2.90371
C 19.1843 0.867996 1.88641
C 21.9228 5.38461 1.21183
C 21.2871 0.825455 3.07511
C 21.7449 -0.184808 2.22928
C 10.8499 4.52121 4.29209
C 11.5352 0.817399 0.097926
C 9.39167 -0.521544 5.13798
C 12.1301 3.99507 4.46341
C 12.8154 0.290892 0.269323
C 12.9526 4.47874 5.48086
C 30.3835 1.93977 3.84791
C 30.7481 3.43407 5.71111
C 29.9257 2.9501 4.69381
C 31.6637 1.41363 4.01923
C 32.0284 2.90756 5.88251
C 32.4862 1.8973 5.03668
C 2.75341 1.73076 2.4842
C 3.1181 3.22505 4.3474
C 2.29561 2.74109 3.3301
C 4.03368 1.20461 2.65552
C 4.39836 2.69855 4.51879
C 4.85616 1.68828 3.67297
H 18.1878 1.28515 1.76108
H 21.9485 1.18515 3.86036
H 8.39518 -0.104385 5.01266
H 13.4768 0.650584 1.05458
H 28.9292 3.36726 4.56848
H 34.0108 4.12223 0.6104
H 1.29912 3.15825 3.20477
H 5.05979 3.05824 5.30405
N 19.7557 5.45559 0.016864
N 19.5414 2.38083 3.76459
N 24.0246 5.37797 2.43879
N 25.0272 4.99362 2.60324
N 9.96299 4.06606 3.26844
N 11.0697 1.84627 0.958811
N 14.2319 3.98843 5.69036
N 15.2345 3.60408 5.85482
N 29.4966 1.48462 2.82426
N 31.6037 5.31791 0.514636
N 33.7655 1.40699 5.24619
N 34.7681 1.02264 5.41064
N 1.86655 1.2756 1.46055
N 2.65263 4.25392 5.20828
N 6.1355 1.19797 3.88247
N 7.13807 0.813625 4.04693
O 22.3532 4.45303 0.43657
O 17.3024 5.12388 5.9862
O 18.8234 3.69583 5.30341
O 20.2977 2.80216 4.67279
O 18.3866 2.84096 3.59322
O 12.5605 3.06349 3.68814
O 8.83073 4.58932 3.18041
O 10.3518 3.16126 2.49762
O 11.826 2.26759 1.867
O 9.91493 2.3064 0.787437
O 32.0941 0.48205 3.24397
O 28.3643 2.00788 2.73624
O 29.8854 0.579826 2.05345
O 32.36 5.73924 1.42283
O 30.4489 5.77805 0.343262
O 4.46409 0.273036 1.88026
O 0.734294 1.79887 1.37253
O 2.25532 0.370812 0.689736
O 4.72993 5.53023 0.059117
O 1.49787 4.71405 5.03691
68
 Atoms. Timestep: 741
C 19.5816 1.05788 0.262075
C 19.6846 1.66528 2.6412
C 18.9696 1.54107 1.43659
C 21.5365 4.23332 0.312267
C 21.0322 1.27065 2.67051
C 22.2544 4.32934 1.51648
C 9.23471 3.11911 5.20008
C 8.67106 0.31756 7.54422
C 8.5755 3.6397 6.33269
C 10.6176 2.82102 5.29859
C 12.0326 1.2705 -1.55455
C 11.2984 2.99822 6.51479
C 30.9573 1.87295 4.53529
C 31.0999 2.51102 6.90552
C 30.3644 2.36636 5.71565
C 32.3324 1.52331 4.56427
C 32.4516 2.12983 6.91408
C 33.0712 1.64016 5.75396
C 0.413281 1.97333 2.48098
C 0.493103 2.65306 4.84097
C -0.224315 2.42823 3.65251
C 1.81311 1.74833 2.51438
C 1.87381 2.39895 4.85418
C 2.53795 1.95649 3.70033
H 17.9261 1.82521 1.41164
H 21.5918 1.34826 3.59316
H 6.93681 0.337196 6.27045
H 12.5666 1.41732 -0.624764
H 29.3183 2.64211 5.70801
H 35.0301 3.51886 -1.35596
H -1.2913 2.60631 3.63839
H 2.43867 2.55794 5.76319
N 19.3897 4.50449 -0.958472
N 19.0489 2.19876 3.82534
N 23.6219 3.94057 1.54347
N 24.3602 3.99623 2.66469
N 8.49025 2.90925 3.97312
N 9.9909 2.18568 -0.497223
N 12.6744 2.65073 6.5984
N 15.3629 4.02134 -1.43036
N 30.1544 1.74478 3.33289
N 32.4822 4.34387 -1.08378
N 34.4428 1.26356 5.75995
N 35.1994 1.33243 6.86784
N -0.369718 1.7668 1.27828
N -0.173177 3.14881 6.02462
N 3.94131 1.73062 3.70881
N 4.6912 1.94638 4.80259
O 22.1666 3.82552 -0.769791
O 17.6724 1.59612 -1.07235
O 17.7733 2.46523 7.2264
O 19.7429 2.44061 4.90041
O 17.7787 2.4844 3.83255
O 11.2926 2.3937 4.25168
O 7.32659 3.4663 3.80138
O 8.93444 2.12698 3.03307
O 10.6492 2.50571 0.57963
O 8.71247 2.43104 -0.535987
O 32.9469 1.10573 3.47714
O 28.9868 2.31624 3.25235
O 30.5497 1.02467 2.32354
O 33.185 4.56837 -0.0108242
O 31.2153 4.64516 -1.06631
O 2.46204 1.37298 1.43177
O -1.5498 2.30407 1.15671
O 0.644803 4.55208 0.309778
O 0.501724 3.41384 7.10613
O -1.4554 3.37631 6.02537
68
 Atoms. Timestep: 10764
C 19.5857 1.38867 0.312216
C 19.7787 1.34156 2.75866
C 18.9988 1.42068 1.59096
C 20.9928 1.28279 0.210796
C 21.1734 1.22624 2.63187
C 21.7837 1.19741 1.36786
C 9.12672 2.99604 4.64028
C 8.69886 0.0985893 7.02529
C 8.51888 3.37708 5.85267
C 10.5306 2.80816 4.61423
C 10.6598 3.35423 6.97801
C 11.2921 2.97773 5.78263
C 30.7554 2.00224 4.54608
C 31.0326 2.12561 6.98206
C 30.2105 2.06375 5.84232
C 32.1624 2.01279 4.39754
C 32.4271 2.12495 6.80911
C 32.9954 2.07048 5.52656
C 0.447169 2.07316 3.08503
C 0.625595 2.5519 5.48722
C -0.146434 2.38081 4.3245
C 1.85659 1.94538 3.02
C 2.01887 2.40051 5.40063
C 2.63766 2.09969 4.17767
H 17.923 1.49525 1.67405
H 21.788 1.1616 3.51945
H 7.44724 3.5195 5.88406
H 12.6826 1.32036 -1.31149
H 29.1355 2.0471 5.96214
H 35.0768 3.46928 -1.50925
H -1.22226 2.47606 4.38516
H 2.62695 2.52831 6.2863
N 18.7443 1.47348 -0.860804
N 19.1581 1.37684 4.06438
N 23.1952 1.08967 1.2369
N 24.0086 1.00484 2.30272
N 8.30942 2.82006 3.45729
N 10.0623 1.80823 -0.929039
N 12.6984 2.77462 5.73024
N 13.4822 2.91466 6.8122
N 29.8712 1.93802 3.40315
N 32.4574 3.48336 -0.877712
N 34.4058 2.08083 5.34787
N 35.2582 2.13861 6.38452
N -0.3915 1.906 1.91615
N -0.00122007 2.88161 6.74757
N 4.04915 1.95765 4.08911
N 4.84696 2.07609 5.16354
O 21.583 1.29704 -0.965865
O 17.574 2.03998 -0.79265
O 17.6732 3.10083 7.19628
O 19.8796 1.3413 5.14786
O 17.864 1.45099 4.18704
O 11.148 2.5017 3.49237
O 7.13157 3.36881 3.38136
O 8.70974 2.08897 2.45804
O 10.7635 2.02831 0.146006
O 8.77416 1.99118 -0.874427
O 32.7101 2.00328 3.20048
O 28.6569 2.40095 3.48268
O 30.2421 1.36401 2.29511
O 33.2148 3.54867 0.17958
O 31.1659 3.47857 -0.712296
O 2.45868 1.70994 1.87311
O -1.5945 2.40355 1.89072
O 0.00799825 1.21441 0.888776
O 2.71365 4.32723 -1.35628
O -1.28963 3.05133 6.82852
68
 Atoms. Timestep: 20886
C 19.3692 1.49892 0.327594
C 19.495 1.37543 2.77519
C 18.7455 1.46399 1.58854
C 20.7815 1.45119 0.263023
C 20.8969 1.32371 2.6857
C 21.5432 1.36366 1.43964
C 9.39964 3.25246 4.18503
C 9.53741 3.2038 6.63621
C 8.78444 3.26841 5.45055
C 10.8116 3.18716 4.11656
C 10.9375 3.13004 6.54211
C 11.5777 3.12469 5.29219
C 30.5006 2.12004 4.44453
C 30.6748 2.06923 6.8924
C 29.9013 2.09386 5.7179
C 31.9128 2.13083 4.35574
C 32.0756 2.07617 6.77822
C 32.6976 2.10985 5.52002
C 1.09732 2.25984 3.43035
C 1.09865 2.11886 5.87976
C 0.409702 2.20947 4.65715
C 2.51171 2.23243 3.43797
C 2.50285 2.08463 5.86187
C 3.21183 2.14425 4.65203
H 17.665 1.49231 1.64118
H 21.4885 1.25531 3.58842
H 7.70772 3.31652 5.50884
H 11.5325 3.08023 7.44401
H 28.8219 2.07684 5.79073
H 34.6564 3.334 -1.36687
H -0.672365 2.22199 4.6541
H 3.04778 2.01635 6.79357
N 18.5583 1.59543 -0.865258
N 18.8368 1.3378 4.06202
N 22.9616 1.32546 1.3472
N 23.7483 1.25069 2.43351
N 8.5809 3.30752 2.99271
N 10.855 4.48474 -1.11185
N 12.9945 3.06213 5.19404
N 13.7847 2.99647 6.27802
N 29.6654 2.14443 3.26392
N 32.0132 3.31096 -0.846119
N 34.1145 2.13116 5.40265
N 34.9218 2.12403 6.47622
N 0.348342 2.34359 2.19726
N 0.378466 2.05791 7.13148
N 4.6324 2.12352 4.63722
N 5.35429 2.02424 5.76523
O 21.4019 1.52452 -0.895734
O 17.3786 2.14403 -0.816497
O 17.5535 3.2453 7.04501
O 19.528 1.26153 5.16244
O 17.5383 1.38347 4.15068
O 11.4291 3.21683 2.95421
O 7.38139 3.8117 3.03711
O 8.99101 2.79269 1.86969
O 11.5488 4.41149 -0.0126226
O 9.55822 4.55906 -1.01905
O 32.5105 2.19616 3.18463
O 28.4562 2.62375 3.32105
O 30.0756 1.63489 2.13835
O 32.7268 3.28919 0.24254
O 30.7159 3.30176 -0.733849
O 3.18977 2.32331 2.31298
O -0.835536 2.88536 2.17989
O 0.801326 1.81002 1.10007
O 2.9856 3.20593 -0.778027
O -0.921591 2.12837 7.15951
68
 Atoms. Timestep: 30891
C 18.9405 1.63073 0.416956
C 19.0833 1.53116 2.86552
C 18.3275 1.63166 1.68392
C 20.3504 1.53308 0.342651
C 20.4812 1.42716 2.76566
C 21.1179 1.42865 1.51428
C 9.60521 3.17204 3.88711
C 9.94692 3.15717 6.31866
C 9.09713 3.20299 5.1992
C 11.0069 3.10177 3.70256
C 11.334 3.07627 6.10957
C 11.868 3.04938 4.81118
C 30.3731 2.17495 4.4113
C 30.5318 2.10822 6.85971
C 29.7668 2.16962 5.68129
C 31.7848 2.12511 4.33003
C 31.9318 2.05254 6.75319
C 32.5615 2.06234 5.49837
C 1.33966 2.17452 3.73279
C 1.37888 2.05536 6.18318
C 0.671932 2.14197 4.97084
C 2.75372 2.12918 3.71858
C 2.78234 2.00499 6.14378
C 3.47265 2.04385 4.92198
H 17.2498 1.6988 1.74681
H 21.077 1.34648 3.6646
H 8.02824 3.25197 5.34692
H 12.0016 3.03564 6.95961
H 28.6877 2.19916 5.7488
H 34.5056 3.2795 -1.38731
H -0.409394 2.16591 4.98559
H 3.341 1.93998 7.06754
N 18.1217 1.73678 -0.770947
N 18.4351 1.5332 4.15793
N 22.5327 1.33264 1.41108
N 23.3242 1.23627 2.49198
N 8.69024 3.21877 2.76643
N 11.3751 4.46633 -1.37835
N 13.2715 2.97558 4.59664
N 14.1486 2.9213 5.61219
N 29.5456 2.23855 3.2268
N 31.8616 3.37581 -0.881284
N 33.9782 2.01676 5.38845
N 34.7781 1.9654 6.46621
N 0.570925 2.25888 2.51154
N 0.676419 2.01523 7.44593
N 4.89281 2.00603 4.88274
N 5.63515 1.931 5.99929
O 20.9651 1.57145 -0.820742
O 16.9383 2.27645 -0.710853
O 17.1093 3.3926 7.13191
O 19.1342 1.48639 5.25511
O 17.1378 1.58795 4.25473
O 11.526 3.11612 2.49302
O 7.49457 3.71377 2.90984
O 9.00972 2.70682 1.61339
O 12.1606 4.506 -0.340969
O 10.0887 4.46418 -1.17804
O 32.3912 2.17048 3.16259
O 28.3506 2.7521 3.28342
O 29.9422 1.72188 2.10024
O 32.5676 3.34776 0.212105
O 30.564 3.40093 -0.777433
O 3.41516 2.20069 2.58264
O -0.617498 2.79041 2.51536
O 1.00968 1.73458 1.40452
O 3.29812 3.17284 -0.469789
O -0.62221 2.09721 7.49149
68
 Atoms. Timestep: 40931
C 18.5661 1.69474 0.304899
C 18.6783 1.54305 2.75011
C 17.9347 1.63869 1.56021
C 19.9798 1.66475 0.250199
C 20.0809 1.51018 2.67108
C 20.7349 1.57194 1.43083
C 9.72056 3.14454 3.74314
C 10.3538 3.16526 6.11718
C 9.37377 3.14454 5.10759
C 11.0909 3.17989 3.39091
C 11.7072 3.19114 5.74135
C 12.0801 3.20384 4.3879
C 30.1618 2.20771 4.36354
C 30.3076 2.13437 6.81245
C 29.5489 2.20371 5.63011
C 31.574 2.14837 4.28999
C 31.708 2.0691 6.71368
C 32.3442 2.07748 5.4625
C 1.89924 2.09065 4.06659
C 1.9128 1.96344 6.51672
C 1.21858 2.05922 5.29752
C 3.3134 2.0355 4.06706
C 3.31575 1.90251 6.49197
C 4.01864 1.9404 5.27817
H 16.854 1.65454 1.60608
H 20.6661 1.43406 3.57744
H 8.33066 3.11197 5.38187
H 12.4743 3.20701 6.50423
H 28.4698 2.23997 5.69162
H 34.2596 3.27899 -1.34553
H 0.137608 2.09057 5.30126
H 3.86412 1.83079 7.42142
N 17.7628 1.78321 -0.893499
N 18.0129 1.4739 4.03031
N 22.154 1.5468 1.34782
N 22.9336 1.46863 2.43903
N 8.67674 3.11663 2.73993
N 9.97786 3.15856 7.51401
N 13.448 3.25058 4.00651
N 14.4379 3.31466 4.91129
N 29.3408 2.28017 3.17474
N 31.6137 3.393 -0.854069
N 33.7612 2.02203 5.36012
N 34.5552 1.96222 6.44203
N 1.14367 2.18366 2.83773
N 3.15226 3.18935 -1.18654
N 5.43831 1.89168 5.25634
N 6.16407 1.8002 6.38255
O 20.6074 1.75624 -0.903092
O 16.5713 2.30776 -0.853835
O 16.7893 3.44189 6.9453
O 18.6955 1.49665 5.13842
O 16.7164 1.38366 4.10383
O 11.458 3.22649 2.12755
O 7.47671 3.53531 3.02334
O 8.89027 2.61462 1.55781
O 12.8373 4.45927 -0.509822
O 10.6797 4.3835 -1.08916
O 32.187 2.19177 3.12599
O 28.1511 2.80742 3.22525
O 29.7359 1.75429 2.05166
O 32.3146 3.35494 0.242305
O 30.3156 3.43138 -0.756753
O 3.98729 2.1067 2.93838
O -0.0372635 2.73246 2.82895
O 1.58215 1.64233 1.73872
O 3.79298 3.06162 -0.0604857
O 1.85388 3.28382 -1.1525
68
 Atoms. Timestep: 50936
C 18.0444 1.61053 0.322887
C 18.6205 1.5522 2.70776
C 17.6635 1.59426 1.67796
C 19.4223 1.5912 0.00184102
C 19.9824 1.52834 2.36368
C 20.3884 1.54891 1.02011
C 9.7127 3.17399 3.50548
C 10.6565 3.22051 5.77285
C 9.55088 3.18423 4.90397
C 11.0239 3.21625 2.97337
C 11.9479 3.25556 5.21999
C 12.1372 3.25997 3.8285
C 30.0503 2.22352 4.34894
C 30.2256 2.16813 6.79591
C 29.4536 2.23939 5.62307
C 31.4599 2.14006 4.25801
C 31.623 2.07974 6.68008
C 32.2435 2.06667 5.42098
C 2.16509 2.03648 4.57059
C 2.23336 1.9283 7.01993
C 1.51174 2.00157 5.81565
C 3.57898 2.00697 4.54068
C 3.63672 1.89386 6.96531
C 4.31253 1.93577 5.73584
H 16.6113 1.60447 1.92964
H 20.73 1.49191 3.14421
H 8.55343 3.1442 5.31731
H 12.8089 3.28846 5.87384
H 28.3761 2.29567 5.6986
H 34.1844 3.28612 -1.38433
H 0.430457 2.01354 5.84218
H 6.15979 3.10311 -1.07384
N 17.027 1.65662 -0.703737
N 18.2128 1.53156 4.09427
N 21.7663 1.5343 0.670219
N 22.7391 1.50399 1.59591
N 8.54399 3.12869 2.65171
N 10.4681 3.22046 7.2067
N 13.4411 3.319 3.26526
N 14.5447 3.40688 4.025
N 29.2153 2.30077 3.17052
N 31.5474 3.4484 -0.860933
N 33.6578 1.98695 5.30122
N 34.4641 1.92261 6.37357
N 1.38209 2.10788 3.358
N 3.49906 3.15049 -0.666653
N 5.73224 1.91648 5.68082
N 6.48757 1.87102 6.79014
O 19.8187 1.64729 -1.25194
O 15.8545 2.16055 -0.447492
O 15.8499 3.3188 7.07557
O 19.0903 1.64617 5.04918
O 16.9599 1.39713 4.42023
O 11.2197 3.25007 1.67224
O 7.38493 3.51861 3.09819
O 8.60647 2.64452 1.44488
O 13.4406 4.43638 -0.941654
O 11.2278 4.53308 -1.23343
O 32.0589 2.1628 3.08632
O 28.0298 2.83522 3.23524
O 29.5944 1.77627 2.04156
O 32.2617 3.45031 0.227336
O 30.2505 3.46713 -0.748468
O 4.22605 2.08251 3.39734
O 0.19065 2.63252 3.37173
O 1.81175 1.57835 2.24988
O 4.16472 3.05406 0.447774
O 2.19985 3.21082 -0.607352
68
 Atoms. Timestep: 60941
C 17.7254 1.66961 0.602017
C 18.5157 1.44161 2.91422
C 17.4713 1.58052 1.98301
C 19.0646 1.61447 0.150128
C 19.838 1.38416 2.44107
C 20.1181 1.46952 1.06754
C 9.80427 3.17947 3.19333
C 10.7954 3.24486 5.43952
C 9.67146 3.20167 4.59477
C 11.1048 3.21659 2.63344
C 12.0748 3.27618 4.85965
C 12.2359 3.26919 3.46512
C 29.9707 2.23631 4.33064
C 30.1502 2.18259 6.77748
C 29.3761 2.25369 5.60583
C 31.3804 2.15136 4.23745
C 31.5475 2.09266 6.65937
C 32.166 2.07798 5.39923
C 2.30564 2.00227 4.75446
C 2.49745 1.96069 7.20041
C 1.71585 1.99487 6.03193
C 3.71694 1.98181 4.6551
C 3.89664 1.93589 7.07621
C 4.5095 1.94912 5.81336
H 16.4479 1.60646 2.33103
H 20.6532 1.2758 3.14349
H 8.68247 3.1666 5.02959
H 12.9491 3.31451 5.49513
H 28.2986 2.31124 5.68317
H 34.1101 3.29877 -1.40433
H 0.637122 2.00196 6.11311
H 6.46494 3.17288 -0.989908
N 16.6196 1.83049 -0.315379
N 18.2347 1.36022 4.33038
N 21.4554 1.4212 0.586938
N 22.5081 1.29482 1.41153
N 8.61737 3.12835 2.36501
N 10.6383 3.25624 6.87675
N 13.5291 3.32654 2.87668
N 14.6464 3.42849 3.61496
N 29.1336 2.31361 3.1535
N 31.4737 3.46437 -0.87664
N 33.5803 1.99664 5.27727
N 34.3884 1.93209 6.3482
N 1.46197 2.03976 3.58068
N 3.82726 3.2144 -0.450715
N 5.92466 1.93986 5.68679
N 6.73456 1.94082 6.75735
O 19.3448 1.73268 -1.13028
O 15.5041 2.36626 0.0885507
O 14.735 0.126652 7.4164
O 19.1994 1.24157 5.19679
O 17.0113 1.41428 4.77274
O 11.2737 3.23766 1.32839
O 7.46811 3.52296 2.83296
O 8.65396 2.63362 1.16152
O 13.6285 4.50138 -1.29296
O 9.4564 3.28566 7.42005
O 31.9775 2.17263 3.06482
O 27.9481 2.84809 3.22019
O 29.5109 1.78932 2.02385
O 32.19 3.46954 0.210351
O 30.1768 3.48158 -0.762087
O 4.30696 2.02993 3.47992
O 0.260572 2.53742 3.64695
O 1.85227 1.51622 2.45509
O 4.54882 3.22957 0.632692
O 2.53097 3.19588 -0.329747
68
 Atoms. Timestep: 70944
C 17.6747 1.56643 0.71131
C 18.4695 1.37376 3.02572
C 17.424 1.49968 2.09416
C 19.0135 1.50315 0.258107
C 19.7907 1.30602 2.5512
C 20.0684 1.37017 1.176
C 9.86649 3.28051 3.09017
C 10.8645 3.29273 5.33322
C 9.73769 3.27334 4.49198
C 11.1653 3.32743 2.52714
C 12.142 3.33498 4.75108
C 12.2988 3.3606 3.35647
C 29.8929 2.24912 4.31239
C 30.0745 2.19622 6.75908
C 29.2994 2.26723 5.58806
C 31.3026 2.16349 4.21809
C 31.4718 2.1056 6.63988
C 32.0893 2.09016 5.37925
C 2.33094 1.9687 4.78821
C 2.60132 1.97158 7.22727
C 1.78237 1.96869 6.08408
C 3.7387 1.97848 4.64405
C 3.99601 1.97691 7.05859
C 4.5681 1.98353 5.77674
H 16.402 1.53167 2.44386
H 20.6071 1.20842 3.25392
H 8.75034 3.2277 4.92956
H 13.0175 3.36057 5.38583
H 28.2219 2.32536 5.6663
H 34.0347 3.31147 -1.42259
H 0.706853 1.95329 6.20001
H 6.59207 3.24231 -1.02572
N 16.5663 1.71167 -0.206381
N 18.1906 1.31611 4.44357
N 21.4049 1.31224 0.693995
N 22.4587 1.19437 1.51854
N 8.67765 3.24609 2.26443
N 10.7128 3.26676 6.76994
N 13.5904 3.43185 2.76669
N 14.7087 3.51584 3.50563
N 29.0548 2.32642 3.13593
N 31.3987 3.47858 -0.892839
N 33.5034 2.00808 5.25617
N 34.3125 1.9435 6.32644
N 1.44952 1.96879 3.6416
N 3.97296 3.23249 -0.402766
N 5.97844 2.00598 5.60521
N 6.82126 2.04824 6.64921
O 19.2922 1.60161 -1.02435
O 15.4452 2.23767 0.195313
O 17.2064 4.70663 -1.42767
O 19.153 1.1656 5.3077
O 16.9721 1.4253 4.88974
O 11.3297 3.37632 1.22235
O 7.53179 3.64165 2.73997
O 8.70841 2.76069 1.05701
O 13.6953 4.35816 -1.40701
O 9.54291 3.41135 7.32079
O 31.8988 2.18403 3.045
O 27.8692 2.8609 3.20358
O 29.4312 1.80218 2.00595
O 32.1159 3.48544 0.19353
O 30.1018 3.49489 -0.777246
O 4.29014 2.02048 3.45006
O 0.238186 2.43626 3.74022
O 1.81844 1.44405 2.5093
O 4.72664 3.30771 0.65607
O 2.6831 3.16125 -0.239602
68
 Atoms. Timestep: 80947
C 17.6898 1.50074 0.728765
C 18.4937 1.34893 3.04341
C 17.4445 1.4562 2.1136
C 19.0275 1.43519 0.271958
C 19.8134 1.27791 2.56529
C 20.086 1.32086 1.18828
C 9.91111 3.3369 3.07582
C 10.8973 3.30336 5.3232
C 9.77468 3.3121 4.47657
C 11.2132 3.37431 2.52005
C 12.1782 3.33619 4.74869
C 12.3428 3.38001 3.35542
C 29.8104 2.26267 4.29316
C 29.9942 2.21073 6.73965
C 29.2181 2.28148 5.56933
C 31.2201 2.17655 4.19762
C 31.3914 2.11962 6.61923
C 32.0077 2.10345 5.35808
C 2.33892 1.96243 4.80969
C 2.64319 1.9781 7.24473
C 1.80847 1.96318 6.1131
C 3.74446 1.98392 4.64594
C 4.03529 1.99505 7.0566
C 4.58945 2.00142 5.76694
H 16.424 1.49133 2.46671
H 20.6325 1.1945 3.26658
H 8.78471 3.27262 4.90884
H 13.0502 3.34143 5.38892
H 28.1407 2.34003 5.64855
H 33.9547 3.32536 -1.44189
H 0.734842 1.93895 6.24416
H 6.64286 3.2696 -1.03491
N 16.577 1.62548 -0.18718
N 18.22 1.31339 4.46308
N 21.421 1.25977 0.702634
N 22.478 1.15807 1.52525
N 8.7267 3.32863 2.24355
N 10.7378 3.25754 6.75806
N 13.6382 3.44195 2.77341
N 14.7535 3.49839 3.51949
N 28.9712 2.33977 3.11744
N 31.3192 3.49361 -0.90986
N 33.4218 2.02084 5.23376
N 34.2318 1.9564 6.30331
N 1.44161 1.94996 3.67544
N 4.03295 3.23923 -0.375454
N 5.99704 2.0363 5.57572
N 6.85389 2.09125 6.60764
O 19.3018 1.51369 -1.01288
O 15.4515 2.14377 0.21234
O 17.2181 4.60957 -1.40448
O 19.1862 1.18377 5.32632
O 17.0024 1.42157 4.9117
O 11.3847 3.44007 1.21695
O 7.5848 3.73887 2.71615
O 8.75621 2.85005 1.0334
O 13.7047 4.27174 -1.41771
O 9.57579 3.46022 7.30728
O 31.8153 2.1964 3.02403
O 27.7857 2.87416 3.18608
O 29.3467 1.81552 1.98719
O 32.0375 3.50245 0.175816
O 30.0224 3.50874 -0.79311
O 4.27893 2.02539 3.44427
O 0.227162 2.40574 3.78949
O 1.80018 1.42618 2.53938
O 4.80021 3.33053 0.67231
O 2.74651 3.15237 -0.193911
68
 Atoms. Timestep: 90954
C 17.715 1.47297 0.734316
C 18.5267 1.32745 3.0467
C 17.4745 1.43382 2.1202
C 19.051 1.40336 0.273154
C 19.8445 1.25216 2.56428
C 20.1124 1.29003 1.1862
C 9.95692 3.36582 3.07589
C 10.9306 3.30928 5.32799
C 9.81272 3.33269 4.47564
C 11.262 3.3965 2.52726
C 12.2147 3.33563 4.76062
C 12.3871 3.38738 3.36855
C 29.7162 2.27811 4.27147
C 29.9026 2.22712 6.71775
C 29.1253 2.29763 5.54826
C 31.1257 2.19143 4.1745
C 31.2995 2.13545 6.59594
C 31.9145 2.11851 5.33414
C 2.35275 1.95417 4.83027
C 2.68232 1.97584 7.262
C 1.83594 1.95579 6.13918
C 3.75638 1.98007 4.65188
C 4.07222 1.99723 7.05935
C 4.61287 2.00301 5.76397
H 16.4554 1.47253 2.47683
H 20.6659 1.16946 3.26299
H 8.8202 3.29791 4.90237
H 13.0831 3.32967 5.4056
H 28.0481 2.35668 5.62862
H 31.9115 2.0778 7.48577
H 0.763891 1.92826 6.28155
H 6.68819 3.27549 -1.03707
N 16.5992 1.59614 -0.178196
N 18.2579 1.29711 4.46745
N 21.4456 1.22469 0.696134
N 22.5052 1.1234 1.51549
N 8.7772 3.37252 2.23729
N 10.7632 3.25501 6.76155
N 13.686 3.44241 2.79378
N 14.7976 3.48378 3.54622
N 28.8758 2.35507 3.09665
N 31.2285 3.51054 -0.929113
N 33.3283 2.03529 5.20831
N 34.1394 1.97093 6.27712
N 1.44371 1.93646 3.70547
N 4.08557 3.23743 -0.350357
N 6.01818 2.04283 5.55795
N 6.88552 2.10313 6.58082
O 19.3212 1.47693 -1.01292
O 15.4747 2.11436 0.22416
O 17.2362 4.57737 -1.39521
O 19.2266 1.16676 5.32773
O 17.0422 1.41056 4.92002
O 11.4409 3.46979 1.22551
O 7.63683 3.79196 2.70538
O 8.8087 2.89792 1.02561
O 13.7213 4.24578 -1.40926
O 9.60194 3.4732 7.30651
O 31.7197 2.21053 3.00023
O 27.6903 2.88919 3.16644
O 29.2502 1.83097 1.96595
O 31.9479 3.5216 0.155819
O 29.9319 3.52429 -0.810989
O 4.27827 2.02054 3.4446
O 0.228512 2.38677 3.83171
O 1.79292 1.4139 2.5659
O 4.86315 3.33611 0.68913
O 2.80167 3.1438 -0.155124
68
 Atoms. Timestep: 100000
C 17.7449 1.45775 0.738028
C 18.5619 1.31057 3.04902
C 17.5078 1.42099 2.12491
C 19.0795 1.38177 0.27343
C 19.8782 1.22883 2.56314
C 20.1428 1.26436 1.18408
C 10.0007 3.38631 3.07808
C 10.9637 3.31568 5.33487
C 9.84984 3.34798 4.47727
C 11.3085 3.41263 2.53541
C 12.2506 3.338 4.77328
C 12.4297 3.39438 3.38193
C 29.6197 2.2944 4.24913
C 29.8085 2.24407 6.6958
C 29.03 2.31495 5.52682
C 31.0291 2.20623 4.15072
C 31.2053 2.15089 6.57252
C 31.819 2.13285 5.30984
C 2.36592 1.94132 4.85102
C 2.71883 1.96685 7.28007
C 1.8617 1.94334 6.16519
C 3.76786 1.97043 4.65909
C 4.10676 1.99158 7.06392
C 4.63495 1.99724 5.76313
H 16.4898 1.46482 2.48431
H 20.701 1.14296 3.25997
H 8.85511 3.31617 4.89929
H 13.1161 3.32507 5.42229
H 27.9529 2.37521 5.60836
H 31.8181 2.09284 7.46196
H 0.791083 1.91337 6.31803
H 6.73089 3.27261 -1.03877
N 16.6271 1.58478 -0.172
N 18.2966 1.28263 4.4708
N 21.4745 1.19246 0.690613
N 22.5357 1.08673 1.50742
N 8.8249 3.40272 2.23391
N 10.7894 3.25651 6.76774
N 13.7316 3.44494 2.81321
N 14.84 3.47713 3.57093
N 28.7781 2.37183 3.07487
N 31.1357 3.52866 -0.950153
N 33.2327 2.04804 5.18262
N 34.0448 1.98308 6.25073
N 1.44603 1.92006 3.73475
N 4.13498 3.22863 -0.326743
N 6.0382 2.04099 5.54354
N 6.91516 2.10574 6.55802
O 19.3469 1.453 -1.01358
O 15.5049 2.10577 0.233503
O 17.26 4.56675 -1.38974
O 19.2668 1.14708 5.32878
O 17.0828 1.40343 4.92658
O 11.4937 3.49037 1.23459
O 7.68503 3.82824 2.69806
O 8.85911 2.93109 1.0209
O 13.7429 4.24014 -1.39938
O 9.62655 3.47754 7.3083
O 31.622 2.22431 2.97568
O 27.5926 2.90619 3.14608
O 29.1513 1.84806 1.94341
O 31.8562 3.54138 0.134175
O 29.8391 3.54191 -0.830692
O 4.27815 2.01024 3.44662
O 0.230455 2.3662 3.87274
O 1.78621 1.39907 2.59147
O 4.92223 3.33111 0.705234
O 2.85326 3.13117 -0.118951
68
 Atoms. Timestep: 100958
C 17.7484 1.45662 0.738938
C 18.566 1.30915 3.04927
C 17.5118 1.42005 2.12561
C 19.0829 1.37999 0.274114
C 19.882 1.22674 2.56316
C 20.1463 1.2621 1.18432
C 10.0063 3.38855 3.07831
C 10.9682 3.31655 5.33506
C 9.8548 3.34969 4.47714
C 11.3143 3.41449 2.53638
C 12.2553 3.33852 4.7742
C 12.435 3.39537 3.38324
C 29.6083 2.29639 4.2463
C 29.7974 2.24619 6.69245
C 29.0188 2.31701 5.52378
C 31.0176 2.20821 4.14779
C 31.1941 2.15299 6.56908
C 31.8077 2.13489 5.30661
C 2.36872 1.93962 4.85314
C 2.72434 1.96557 7.28131
C 1.86601 1.94163 6.1676
C 3.77037 1.9692 4.65972
C 4.11194 1.99078 7.06369
C 4.63865 1.99649 5.76258
H 16.4939 1.46441 2.48518
H 20.705 1.1405 3.25964
H 8.85991 3.31813 4.89857
H 13.1204 3.32494 5.42347
H 27.9418 2.37728 5.6054
H 31.807 2.09499 7.45829
H 0.795626 1.9113 6.32158
H 6.73659 3.27191 -1.03808
N 16.6305 1.5841 -0.170637
N 18.3011 1.28138 4.47082
N 21.4777 1.18953 0.690621
N 22.5391 1.08327 1.50701
N 8.83092 3.40589 2.23378
N 10.7933 3.25689 6.76754
N 13.7371 3.44552 2.81525
N 14.8452 3.4768 3.57335
N 28.7666 2.37376 3.07235
N 31.1244 3.5306 -0.951884
N 33.2213 2.05007 5.17929
N 34.0334 1.98515 6.24712
N 1.44763 1.91791 3.73809
N 4.14163 3.22705 -0.323363
N 6.04157 2.04078 5.54151
N 6.9196 2.10608 6.55482
O 19.3499 1.45104 -1.0127
O 15.5086 2.10541 0.235089
O 17.2629 4.566 -1.3882
O 19.2715 1.14521 5.32839
O 17.0876 1.40296 4.92682
O 11.5 3.49268 1.23594
O 7.69117 3.83201 2.69741
O 8.86536 2.93452 1.02091
O 13.746 4.23982 -1.39753
O 9.63029 3.47795 7.30753
O 31.6103 2.22622 2.97293
O 27.5812 2.90806 3.14364
O 29.1396 1.84999 1.94108
O 31.845 3.54349 0.132166
O 29.8279 3.54375 -0.832331
O 4.27927 2.00899 3.44693
O 0.23208 2.36352 3.87737
O 1.78674 1.39709 2.59466
O 4.92998 3.32983 0.707546
O 2.86023 3.12923 -0.114199
68
 Atoms. Timestep: 110960
C 17.7882 1.44593 0.744452
C 18.6109 1.29548 3.05286
C 17.5549 1.41152 2.13182
C 19.121 1.36213 0.276316
C 19.9251 1.20583 2.56344
C 20.1861 1.23909 1.18391
C 10.0634 3.41201 3.07962
C 11.0121 3.32534 5.34148
C 9.90378 3.36706 4.47734
C 11.3744 3.43442 2.54517
C 12.3024 3.34426 4.7879
C 12.4902 3.40633 3.39821
C 29.4825 2.31687 4.21686
C 29.675 2.26803 6.66282
C 28.8949 2.33834 5.49519
C 30.8916 2.2283 4.11645
C 31.0715 2.17442 6.53756
C 31.6832 2.15544 5.27422
C 2.38658 1.91484 4.88226
C 2.77526 1.94452 7.30546
C 1.90191 1.91609 6.20356
C 3.78531 1.94991 4.6697
C 4.15957 1.97548 7.06882
C 4.66839 1.98237 5.76061
H 16.5383 1.46168 2.49406
H 20.7493 1.11557 3.25788
H 8.90634 3.33776 4.89274
H 13.1638 3.32382 5.44187
H 27.818 2.39899 5.57831
H 31.6856 2.11673 7.42596
H 0.833924 1.88143 6.37225
H 6.79527 3.26011 -1.04061
N 16.6686 1.57826 -0.162445
N 18.3496 1.26984 4.47515
N 21.5158 1.15912 0.686888
N 22.5786 1.04728 1.50063
N 8.89313 3.43928 2.22853
N 10.8288 3.26018 6.77277
N 13.7957 3.45281 2.83773
N 14.8995 3.47502 3.60215
N 28.6392 2.39379 3.04403
N 31.0035 3.55317 -0.978976
N 33.0966 2.07015 5.14498
N 33.9102 2.00555 6.21172
N 1.45042 1.88845 3.77987
N 4.21068 3.20453 -0.290265
N 6.06788 2.03326 5.52034
N 6.95929 2.10486 6.52144
O 19.3853 1.43106 -1.01121
O 15.5494 2.1031 0.246292
O 17.2964 4.56082 -1.38053
O 19.3211 1.12751 5.33023
O 17.1381 1.39944 4.93431
O 11.5678 3.51771 1.24616
O 7.75373 3.87197 2.68682
O 8.93148 2.97081 1.01464
O 13.7766 4.2405 -1.38574
O 9.66259 3.47881 7.3068
O 31.4827 2.24549 2.94075
O 27.4538 2.92782 3.11683
O 29.0108 1.86995 1.91231
O 31.7256 3.56889 0.104036
O 29.7072 3.56447 -0.857614
O 4.27751 1.99003 3.45003
O 0.234785 2.32815 3.93579
O 1.77652 1.36999 2.63153
O 5.01282 3.30929 0.729738
O 2.93262 3.10321 -0.0634419
68
 Atoms. Timestep: 120962
C 17.8356 1.43862 0.75088
C 18.6654 1.28632 3.05672
C 17.6069 1.40681 2.1391
C 19.1666 1.34808 0.278464
C 19.9775 1.18978 2.56301
C 20.2341 1.22064 1.18264
C 10.1363 3.44436 3.07613
C 11.0649 3.3366 5.3454
C 9.96434 3.38956 4.47194
C 11.4518 3.46363 2.55308
C 12.36 3.35315 4.8029
C 12.5601 3.42368 3.41532
C 29.3318 2.34082 4.1816
C 29.5292 2.29401 6.62718
C 28.7467 2.36316 5.46107
C 30.7407 2.25251 4.07848
C 30.9254 2.20062 6.49924
C 31.5346 2.18074 5.23473
C 2.39824 1.876 4.92591
C 2.84032 1.90698 7.34009
C 1.94296 1.87416 6.25771
C 3.79174 1.91901 4.68251
C 4.21884 1.9463 7.07278
C 4.69849 1.95697 5.75365
H 16.5918 1.4625 2.50476
H 20.8036 1.09608 3.25477
H 8.96309 3.36186 4.87808
H 13.2157 3.32364 5.46383
H 27.67 2.42371 5.54633
H 31.5413 2.14371 7.38647
H 0.879205 1.83308 6.45002
H 6.87242 3.2347 -1.05031
N 16.7136 1.57476 -0.152527
N 18.4088 1.26304 4.4799
N 21.5618 1.13368 0.681319
N 22.6266 1.01691 1.49162
N 8.97376 3.48517 2.21531
N 10.8689 3.26264 6.77469
N 13.8704 3.46693 2.86626
N 14.9678 3.47749 3.64015
N 28.486 2.4166 3.0104
N 30.8599 3.57989 -1.01164
N 32.9478 2.09563 5.10275
N 33.7635 2.03199 6.16791
N 1.43801 1.84478 3.84442
N 4.30555 3.16274 -0.242648
N 6.09194 2.01756 5.4825
N 7.00474 2.09685 6.46355
O 19.4271 1.41458 -1.00995
O 15.597 2.1022 0.259903
O 17.3363 4.55785 -1.37105
O 19.3823 1.11445 5.33172
O 17.1998 1.40091 4.94315
O 11.6565 3.55522 1.25642
O 7.83447 3.92653 2.66556
O 9.01858 3.02115 0.99993
O 13.8106 4.24355 -1.37444
O 9.69692 3.4728 7.29935
O 31.3295 2.26887 2.90163
O 27.3004 2.94981 3.08527
O 28.8559 1.89264 1.87815
O 31.5841 3.59958 0.0698629
O 29.5638 3.58822 -0.887701
O 4.25671 1.96149 3.45227
O 0.223316 2.27632 4.0279
O 1.74215 1.33103 2.68793
O 5.1304 3.26228 0.759605
O 3.03277 3.0622 0.0124054
68
 Atoms. Timestep: 130967
C 17.8905 1.4348 0.758068
C 18.7334 1.28428 3.05929
C 17.6699 1.40738 2.14774
C 19.2185 1.3381 0.278184
C 20.0422 1.18125 2.55815
C 20.2907 1.20828 1.17634
C 10.2359 3.49513 3.06121
C 11.1296 3.35079 5.34227
C 10.0425 3.42125 4.45315
C 11.5588 3.5128 2.55798
C 12.4328 3.36687 4.81915
C 12.6538 3.45394 3.43571
C 29.1487 2.36958 4.13819
C 29.3531 2.32554 6.58314
C 28.5672 2.39291 5.41923
C 30.5574 2.28203 4.03125
C 30.7489 2.23285 6.45145
C 31.3546 2.21197 5.1853
C 2.39475 1.81721 4.9979
C 2.92721 1.84102 7.39406
C 1.98997 1.80618 6.34598
C 3.77774 1.87242 4.70247
C 4.29434 1.89312 7.07511
C 4.7238 1.91423 5.73893
H 16.6573 1.46843 2.51936
H 20.8719 1.08562 3.24521
H 9.03492 3.39319 4.84307
H 13.2785 3.32299 5.49182
H 27.4907 2.45301 5.50748
H 31.3673 2.17718 7.33698
H 0.93462 1.75474 6.57793
H 6.9778 3.18418 -1.07287
N 16.7634 1.57203 -0.139162
N 18.4853 1.26471 4.48399
N 21.6151 1.1148 0.667454
N 22.6842 0.994854 1.47182
N 9.08696 3.55768 2.18406
N 10.9118 3.25994 6.76759
N 13.9724 3.49528 2.90653
N 15.0582 3.48742 3.69659
N 28.2996 2.44361 2.96935
N 30.6869 3.61221 -1.05181
N 32.7674 2.12751 5.0494
N 33.5862 2.06539 6.11242
N 1.3947 1.78279 3.95312
N 4.44378 3.08538 -0.168997
N 6.10539 1.98985 5.41572
N 7.05368 2.07776 6.36186
O 19.4719 1.40071 -1.01187
O 15.6491 2.09963 0.279281
O 17.379 4.5542 -1.35805
O 19.4627 1.10919 5.33015
O 17.2802 1.41246 4.95437
O 11.783 3.62097 1.26585
O 7.94737 4.01147 2.62096
O 9.14386 3.10222 0.965924
O 13.8437 4.24513 -1.36616
O 9.72911 3.45104 7.27563
O 31.1429 2.29749 2.85275
O 27.1134 2.9753 3.04711
O 28.667 1.91965 1.83632
O 31.4142 3.63723 0.0275821
O 29.3911 3.61636 -0.92421
O 4.19582 1.92294 3.45571
O 0.184084 2.20264 4.18447
O 1.65965 1.27875 2.78271
O 5.30762 3.15648 0.802425
O 3.18013 3.00169 0.133312
68
 Atoms. Timestep: 141035
C 17.9705 1.43422 0.778805
C 18.8335 1.29542 3.07369
C 17.7625 1.41709 2.17071
C 19.294 1.32983 0.287881
C 20.1375 1.18441 2.56155
C 20.3737 1.20239 1.17729
C 10.4042 3.54993 3.03692
C 11.2591 3.36426 5.32959
C 10.1872 3.4515 4.42367
C 11.7349 3.57211 2.55609
C 12.5709 3.38613 4.82831
C 12.8149 3.4956 3.45034
C 28.8708 2.41282 4.06444
C 29.087 2.3755 6.50835
C 28.2955 2.43994 5.34817
C 30.2791 2.32364 3.95113
C 30.4823 2.28224 6.3705
C 31.0819 2.25745 5.10154
C 2.48764 1.75414 5.06223
C 3.11237 1.76943 7.43649
C 2.13529 1.73426 6.42515
C 3.85782 1.81972 4.71398
C 4.46575 1.83301 7.06504
C 4.84282 1.86482 5.71331
H 16.7536 1.48488 2.55088
H 20.973 1.09004 3.24183
H 9.17294 3.41778 4.79524
H 13.4054 3.3282 5.51356
H 27.2193 2.50077 5.44145
H 31.1049 2.22849 7.2533
H 1.09002 1.67337 6.69747
H 7.16446 3.11631 -1.04364
N 16.8359 1.56845 -0.109615
N 18.5979 1.28554 4.50076
N 21.6932 1.10174 0.656841
N 22.7693 0.98228 1.45199
N 9.27087 3.63378 2.142
N 11.0174 3.25135 6.74954
N 14.142 3.54242 2.94365
N 15.2143 3.51732 3.75163
N 28.0161 2.48419 2.89936
N 30.4123 3.65658 -1.05567
N 32.4942 2.17277 4.95907
N 33.3182 2.11382 6.01832
N 1.44831 1.718 4.05621