68
 Atoms. Timestep: 0
C -5.50646 -1.19093 24.3953
C -5.81009 0.800211 25.7297
C -4.96639 -0.121701 25.1101
C -6.89012 -1.33828 24.3002
C -1.23507 0.652871 25.6343
C -1.77513 -0.416273 24.9195
C 1.1866 2.96438 7.23339
C 2.52263 -1.09619 8.56778
C 1.72667 4.03361 7.94822
C 5.76175 2.81703 7.13834
C 1.13884 -1.24353 8.47238
C 4.91793 3.73903 7.75761
C -13.8639 -4.20644 38.4066
C -8.20868 -2.2153 39.741
C -13.3238 -3.13722 39.1214
C -9.2887 -4.3538 38.3116
C -9.59246 -2.36264 39.6456
C -10.1325 -3.43179 38.9308
C -5.04422 -0.513906 31.7064
C -9.66699 -4.57447 33.0408
C -4.50415 0.55532 32.4213
C -6.42787 -0.661261 31.6114
C -11.0508 -4.72181 32.9454
C -7.27169 0.260748 32.2306
H -3.88892 0.00204 25.1905
H -1.91512 1.3575 26.1081
H 2.80414 4.15735 8.02857
H 0.458799 -0.538901 8.94622
H -12.2463 -3.01348 39.2018
H -10.2725 -1.65802 40.1194
H -3.42667 0.679061 32.5016
H -11.7308 -4.01719 33.4193
N -4.59299 -2.10284 23.7825
N -9.57983 -4.1633 26.4579
N -3.15565 -0.520472 24.854
N -4.23761 -0.601879 24.8025
N 2.10007 2.05247 6.62059
N 3.07203 -0.00799 9.29602
N 3.53741 3.63484 7.69206
N 2.45545 3.55343 7.64056
N -12.9504 -5.11836 37.7938
N -7.65927 -1.12711 40.4692
N -11.513 -3.53599 38.8653
N -12.595 -3.6174 38.8138
N -10.0895 -1.42582 31.0936
N -9.11759 -3.48628 33.7691
N -8.65221 0.156549 32.1651
N -3.77537 0.075141 32.1136
O -7.39682 -2.32107 23.6433
O -3.366 -1.90131 23.9146
O -5.054 -3.06951 23.1368
O -4.3979 -3.34594 27.0081
O -8.3324 -4.04913 26.5318
O 5.25504 1.83424 6.48146
O 3.32706 2.254 6.75269
O 1.63906 1.0858 5.97488
O 2.29516 0.809371 9.84622
O -1.63934 0.106178 9.36989
O -9.79541 -5.33659 37.6547
O -11.7234 -4.91682 37.9259
O -9.09225 -0.03332 37.1481
O 3.80172 0.152534 0.407616
O -12.3707 -1.01294 40.5431
O -6.93458 -1.64405 30.9545
O -8.86256 -1.22429 31.2257
O -10.5506 -2.39249 30.4479
O -9.89446 -2.66892 34.3193
O -7.87016 -3.37211 33.8429
68
 Atoms. Timestep: 181
C -7.25132 -1.84889 25.1
C -7.91379 0.230054 26.6519
C -6.99053 -0.661547 25.963
C -8.73735 -1.94839 25.0554
C -9.28011 0.0454486 26.5339
C -9.66861 -1.00165 25.7762
C 0.39712 2.87876 5.00145
C 2.49676 -1.5313 6.55314
C 0.65792 4.0661 5.86442
C 6.30443 2.77926 4.95691
C 1.13043 -1.71589 6.43528
C 5.37318 3.72602 5.6776
C -17.1305 -5.30436 41.5079
C -10.3996 -3.22551 43.0599
C -16.8697 -4.11711 42.3711
C -11.2232 -5.40381 41.4632
C -11.7659 -3.4101 42.942
C -12.1544 -4.45715 42.1842
C -6.69262 -1.23882 33.6618
C -11.9863 -5.649 35.2141
C -6.43183 -0.0515254 34.5251
C -8.17866 -1.33828 33.6173
C -13.3527 -5.83358 35.0961
C -9.10992 -0.391596 34.3382
H -6.08526 -0.251397 26.2336
H -2.72869 0.692774 27.0069
H 1.56318 4.47618 6.13516
H 0.288517 -1.0686 6.90838
H -15.9644 -3.70706 42.642
H -12.6079 -2.76286 43.4153
H -10.1578 -6.13038 34.7957
H -14.1946 -5.18627 35.5691
N -6.24805 -2.88716 24.3193
N -12.0278 -5.16321 27.4646
N -3.64939 -0.765001 25.7181
N -4.55769 -1.64905 25.6971
N 1.40039 1.84047 4.22084
N 3.01398 -0.435555 7.36579
N 3.99905 3.96265 5.61961
N 3.09076 3.07858 5.59859
N -16.1272 -6.34263 40.7271
N -9.8824 -2.12979 43.8727
N -13.5286 -4.22058 42.1263
N -14.4369 -5.10471 42.1053
N -5.68936 -2.2771 32.881
N -11.4691 -4.55335 36.0271
N -10.4841 -0.154982 34.2802
N -11.3924 -1.03905 34.2589
O -9.25617 -2.90733 24.3426
O -4.94496 -3.12706 24.0683
O -6.76659 -3.84339 23.6603
O -12.837 -4.33588 28.0787
O -10.7363 -4.98492 27.5959
O 5.78561 1.82029 4.2441
O 2.70349 1.60058 3.96984
O 0.881855 0.88425 3.56187
O 2.20476 0.39184 7.97968
O -3.08779 -0.25723 7.49711
O -11.742 -6.36269 40.7502
O -14.8241 -6.5824 40.4761
O -12.0145 -0.809743 40.0679
O 4.06704 -0.16289 -3.07382
O -8.59082 -1.95145 44.0041
O -8.69747 -2.2972 32.9043
O -11.7796 -2.51697 32.63
O -6.20782 -3.23324 32.2218
O -12.2783 -3.72604 36.6412
O -10.1775 -4.37512 36.1585
68
 Atoms. Timestep: 10186
C -7.49507 -1.72588 25.3178
C -7.75969 0.169598 26.8505
C -6.98891 -0.567421 25.9341
C -8.82088 -2.12724 25.5992
C -9.06936 -0.256232 27.1286
C -9.60448 -1.39739 26.509
C 0.166196 2.99312 4.76847
C 2.64436 -1.57801 6.27141
C 0.663665 4.16256 5.37091
C -1.16054 2.59178 5.04552
C 5.96423 4.48381 6.54572
C 5.43736 3.33224 5.93894
C -10.0366 -5.08766 40.3451
C -10.3367 -3.17908 41.856
C -9.54806 -3.91937 40.9582
C -11.3687 -5.48754 40.6012
C -11.6486 -3.60841 42.1154
C -12.1691 -4.75516 41.4942
C -6.83588 -1.08687 33.9627
C -11.7551 -5.88339 35.7164
C -6.34855 -0.000252603 34.7109
C -8.14706 -1.55375 34.2081
C -13.0523 -6.37166 35.9519
C -8.93916 -0.953689 35.2009
H -5.97975 -0.249232 25.7087
H -2.28279 0.299543 27.8333
H 1.67274 4.48221 5.14741
H 0.723711 -1.4397 7.23829
H -15.9277 -3.59654 40.7486
H -12.2659 -3.05103 42.8071
H -9.97841 -6.12385 34.5168
H -13.6627 -5.91746 36.7202
N -6.65323 -2.48327 24.4221
N -11.8398 -5.15488 27.508
N -3.53655 -1.83165 26.7944
N -4.28851 -1.25149 27.7438
N 1.01783 2.22436 3.89186
N 3.18634 -0.405748 6.91804
N 4.11461 2.89774 6.22197
N 3.3573 3.48516 7.16261
N -16.5579 -5.86106 39.4886
N -9.80026 -2.01233 42.5181
N -13.4919 -5.19614 41.7668
N -14.2497 -4.62947 42.7198
N -5.99224 -1.70132 32.9649
N -11.226 -4.78697 36.4966
N -10.2551 -1.44082 35.4263
N -11.0381 -0.958454 36.4041
O -9.3446 -3.17124 24.9912
O -5.72145 -1.88983 23.7333
O -6.73033 -3.78194 24.3747
O -12.6021 -4.35573 28.1972
O -10.564 -4.90173 27.4562
O -1.67646 1.53745 4.44887
O 1.95491 2.80946 3.2032
O 0.944563 0.9249 3.86406
O 2.41357 0.409775 7.57568
O -2.92566 -0.162505 6.89203
O -11.881 -6.53509 39.9894
O -15.5618 -5.29184 38.8732
O -12.0343 -0.669703 39.4284
O -10.5747 -1.21577 43.1967
O -8.52449 -1.75576 42.4854
O -8.65224 -2.53355 33.4877
O -5.09382 -0.998348 32.3375
O -6.04056 -2.98422 32.7494
O -11.9757 -4.15088 37.3502
O -9.98433 -4.41725 36.37
68
 Atoms. Timestep: 20191
C -7.50111 -1.72208 25.7589
C -7.75949 0.166722 27.3014
C -6.9918 -0.567129 26.3796
C -8.82679 -2.12342 26.042
C -9.06912 -0.259183 27.581
C -9.60726 -1.39699 26.9575
C 0.167348 2.99324 4.74722
C 2.64482 -1.57732 6.25086
C 0.665042 4.16267 5.34989
C -1.15958 2.59183 5.02438
C 5.96398 4.48366 6.52529
C 5.43685 3.33215 5.91822
C -10.1115 -5.16145 39.9786
C -10.4556 -3.17543 41.3776
C -9.64374 -3.95695 40.5379
C -11.4519 -5.54774 40.2182
C -11.7708 -3.59555 41.6289
C -12.2732 -4.77418 41.0563
C -6.62683 -1.03399 34.0104
C -11.7672 -5.79998 35.6812
C -6.25859 0.10348 34.7513
C -7.92339 -1.57057 34.1785
C -13.0488 -6.3536 35.8381
C -8.81933 -0.986019 35.089
H -5.98255 -0.249411 26.1533
H -2.28184 0.293986 28.29
H 1.67425 4.48241 5.12628
H 0.724075 -1.43922 7.21819
H -8.63187 -3.63474 40.3331
H -12.4043 -3.00636 42.2785
H -9.90122 -5.9616 34.6127
H -13.7369 -5.91266 36.5455
N -6.66259 -2.47592 24.8568
N -11.8361 -5.16007 27.9624
N -3.54094 -1.83121 27.244
N -4.29059 -1.25379 28.1971
N 1.01897 2.2245 3.87033
N 3.18711 -0.405213 6.8979
N 4.11395 2.89755 6.20143
N 3.35697 3.48452 7.14278
N -16.6021 -5.98368 39.1979
N -9.9378 -1.97779 41.9961
N -13.5973 -5.20872 41.3308
N -14.3596 -4.61892 42.2662
N -5.67843 -1.63035 33.1
N -11.356 -4.66006 36.468
N -10.1197 -1.53902 35.236
N -10.986 -1.08993 36.1579
O -9.3534 -3.16408 25.4304
O -5.73241 -1.87983 24.168
O -6.74112 -3.77443 24.8031
O -12.5949 -4.36608 28.6618
O -10.561 -4.90405 27.9027
O -1.67574 1.53754 4.4275
O 1.9562 2.80975 3.18177
O 0.945658 0.924878 3.84228
O 2.41443 0.410064 7.55627
O -2.92309 -0.162003 6.8717
O -11.9518 -6.62244 39.6443
O -15.5458 -5.4633 38.6428
O -12.1189 -0.789987 39.1531
O -10.737 -1.12922 42.5761
O -8.65638 -1.75216 42.0384
O -8.31628 -2.60332 33.4619
O -4.78884 -0.893745 32.4991
O -13.0126 -2.92221 32.9477
O -12.218 -3.99423 37.1816
O -10.1086 -4.28961 36.4992
68
 Atoms. Timestep: 30199
C -7.50789 -1.72161 26.5362
C -7.74736 0.12032 28.1374
C -6.99028 -0.58684 27.1864
C -8.83049 -2.13095 26.8218
C -9.05487 -0.313066 28.4177
C -9.60117 -1.43085 27.7651
C 0.169555 2.99391 4.73854
C 2.6469 -1.57609 6.24211
C 0.667474 4.16322 5.34116
C -1.15735 2.59253 5.01571
C 5.96549 4.48409 6.51655
C 5.43814 3.33273 5.90952
C -10.1901 -5.40722 39.5585
C -10.5227 -3.42803 40.9701
C -9.7163 -4.20766 40.1236
C -11.5301 -5.79198 39.803
C -11.8378 -3.84639 41.2249
C -12.3457 -5.02092 40.6488
C -6.46303 -0.635799 33.5999
C -11.7538 -5.58851 35.3953
C -10.8119 -6.0393 34.4539
C -7.72873 -1.26039 33.6775
C -13.0038 -6.22715 35.4592
C -8.68391 -0.812972 34.605
H -5.98255 -0.26456 26.9596
H -9.64885 0.219089 29.1486
H 1.67665 4.48295 5.11755
H 0.726365 -1.43806 7.20943
H -8.70467 -3.88663 39.9159
H -12.4672 -3.25869 41.8797
H -9.84578 -5.55533 34.3914
H -13.7374 -5.89038 36.1773
N -6.68138 -2.44595 25.5999
N -11.8157 -5.22386 28.824
N -10.9231 -1.87025 28.047
N -4.28492 -1.30753 29.0084
N 1.02095 2.22524 3.86174
N 3.18945 -0.404169 6.88913
N 4.11527 2.89813 6.19275
N 3.35863 3.48486 7.13419
N -16.6877 -6.22233 38.7609
N -10.0002 -2.23304 41.5899
N -13.6703 -5.45276 40.925
N -14.4295 -4.86274 41.8624
N -5.45909 -1.08443 32.6649
N -11.4405 -4.49296 36.2837
N -9.95192 -1.45257 34.6601
N -10.8943 -1.0946 35.5468
O -9.36434 -3.15342 26.1862
O -5.76167 -1.82743 24.9171
O -6.76162 -3.74194 25.5044
O -12.5621 -4.46172 29.5702
O -10.5463 -4.94846 28.7334
O -1.67375 1.53837 4.41889
O 1.95813 2.81051 3.17347
O 0.947607 0.925624 3.83345
O 2.41698 0.410904 7.54783
O -2.91949 -0.160934 6.86267
O -12.0362 -6.8613 39.2246
O -15.6341 -5.69818 38.2048
O -12.2119 -1.02764 38.6952
O -10.7952 -1.38599 42.1777
O -8.71858 -2.00663 41.6226
O -8.03926 -2.24356 32.8582
O -4.60079 -0.242312 32.1659
O -12.7135 -2.34912 32.386
O -12.3683 -3.93108 37.0037
O -10.2206 -4.05152 36.3918
68
 Atoms. Timestep: 40211
C -7.19787 -1.67898 27.2747
C -7.81514 -0.140232 29.082
C -6.89308 -0.600271 28.1246
C -8.47297 -2.28175 27.3625
C -9.07548 -0.759004 29.157
C -9.41223 -1.81913 28.2983
C 0.171699 2.99484 4.73397
C 2.64916 -1.57548 6.23812
C 0.669882 4.16421 5.33682
C -1.15541 2.59342 5.01122
C 5.96781 4.48502 6.51264
C 5.44017 3.33362 5.90536
C -10.3401 -5.44493 39.1004
C -10.7001 -3.47946 40.5226
C -9.88168 -4.24424 39.6743
C -11.6759 -5.84762 39.3364
C -12.0131 -3.91241 40.7663
C -12.5056 -5.08902 40.1799
C -6.36243 -0.368634 33.3226
C -11.7871 -5.34981 35.0869
C -10.7857 -5.76839 34.193
C -7.6129 -1.02777 33.3318
C -13.0178 -6.02721 35.0882
C -8.62217 -0.618598 34.2183
H -5.92022 -0.131631 28.0507
H -9.79713 -0.414846 29.8852
H 1.67922 4.48398 5.11314
H 0.728475 -1.43752 7.20578
H -8.8722 -3.91194 39.4726
H -12.6524 -3.33501 41.4208
H -9.83034 -5.25932 34.1853
H -13.7943 -5.71876 35.7735
N -6.20804 -2.14889 26.335
N -12.0994 -5.54422 29.9765
N -10.6927 -2.43256 28.3564
N -4.2356 -2.05829 29.2483
N 1.02306 2.22611 3.85688
N 3.19202 -0.403551 6.88544
N 4.11711 2.89897 6.18869
N 3.36062 3.48554 7.13056
N -16.8265 -6.24406 38.3014
N -10.1914 -2.28533 41.1555
N -13.8283 -5.53499 40.4434
N -14.6005 -4.95674 41.3777
N -5.29434 -0.799609 32.4532
N -11.5515 -4.253 35.997
N -9.86427 -1.3086 34.2249
N -10.8537 -0.986515 35.0735
O -8.80732 -3.2586 26.5448
O -5.34098 -1.3233 25.8234
O -6.09556 -3.41779 26.0651
O -12.9831 -5.04221 30.7902
O -10.8911 -5.06005 30.0017
O -1.67207 1.53924 4.41418
O 1.96037 2.81154 3.16863
O 0.949589 0.926294 3.82836
O 2.41965 0.411403 7.54474
O -2.91676 -0.160257 6.85869
O -12.1641 -6.92233 38.752
O -15.7999 -5.69623 37.718
O -12.3067 -1.05452 38.269
O -10.9967 -1.45082 41.7475
O -8.91155 -2.04877 41.1975
O -7.85532 -2.0118 32.4906
O -4.40659 0.052024 32.0265
O -5.11477 -2.0644 32.2023
O -12.5303 -3.73011 36.6777
O -10.3519 -3.77841 36.1723
68
 Atoms. Timestep: 50215
C -6.99825 -1.24918 27.5701
C -7.91273 -0.0342249 29.4961
C -6.87703 -0.268338 28.5732
C -8.19045 -2.00763 27.4943
C -9.08579 -0.802434 29.4029
C -9.23292 -1.78271 28.4083
C 0.173561 2.99541 4.72837
C 2.64987 -1.57582 6.2325
C 0.671663 4.16519 5.33117
C -1.15366 2.59388 5.00567
C 5.96955 4.48614 6.50709
C 5.44199 3.33435 5.89984
C -10.3858 -5.5147 38.9241
C -10.7454 -3.52746 40.3173
C -9.92589 -4.30708 39.4836
C -11.7255 -5.90742 39.1576
C -12.0605 -3.95273 40.5621
C -12.5548 -5.13537 39.9895
C -6.37065 -0.571601 33.2665
C -11.8134 -5.49741 34.9722
C -10.805 -5.94279 34.1006
C -7.61551 -1.24101 33.2969
C -13.042 -6.1774 34.9881
C -8.63425 -0.800188 34.1573
H -5.96413 0.310438 28.6366
H -9.8874 -0.638604 30.1077
H 1.68108 4.48506 5.10742
H 0.728973 -1.43778 7.20024
H -8.91502 -3.97928 39.2808
H -12.7002 -3.36439 41.2066
H -9.85436 -5.42505 34.0764
H -13.8251 -5.84427 35.654
N -5.91526 -1.4508 26.6348
N -12.4073 -5.50822 30.5179
N -10.4282 -2.54533 28.3024
N -11.4835 -2.33203 29.1051
N 1.0251 2.2264 3.85128
N 3.19266 -0.403487 6.8798
N 4.11882 2.89957 6.18328
N 3.3622 3.48634 7.12525
N -16.8709 -6.32891 38.1407
N -10.2358 -2.32594 40.9357
N -13.8789 -5.57464 40.2573
N -14.6467 -4.98856 41.1907
N -5.30559 -1.00555 32.395
N -11.5886 -4.36657 35.8418
N -9.87839 -1.48574 34.1714
N -10.8796 -1.12639 34.9909
O -8.35562 -2.90196 26.5416
O -5.11329 -0.469686 26.3334
O -5.66492 -2.6311 26.1446
O -13.4144 -5.18863 31.2791
O -11.2754 -4.89122 30.6997
O -1.67025 1.53933 4.40866
O 1.96262 2.81184 3.16282
O 0.951557 0.926345 3.82304
O 2.42014 0.411847 7.53877
O -2.91627 -0.160254 6.85341
O -7.58705 -0.497771 38.5822
O -15.8251 -5.79785 37.5758
O -12.3712 -1.13593 38.1031
O -11.0419 -1.4777 41.507
O -8.95485 -2.097 40.9878
O -7.84769 -2.25812 32.4925
O -4.43873 -0.148564 31.9378
O -12.5043 -2.27081 32.1554
O -12.58 -3.79726 36.465
O -10.3861 -3.90871 36.0401
68
 Atoms. Timestep: 60228
C -6.87514 -1.02704 27.6071
C -7.87812 0.0804508 29.554
C -6.8156 -0.0784554 28.6462
C -8.03195 -1.83391 27.4831
C -9.01399 -0.735427 29.4139
C -9.09885 -1.68769 28.3851
C 0.177949 2.99647 4.72788
C 2.65074 -1.57684 6.23028
C 0.676057 4.16713 5.32961
C -1.14909 2.59494 5.00507
C 5.97324 4.48881 6.50482
C 5.44594 3.33617 5.8984
C -10.4329 -5.63622 38.9077
C -10.7968 -3.65215 40.3043
C -9.97561 -4.42845 39.469
C -11.7703 -6.03452 39.1419
C -12.1111 -4.08146 40.5477
C -12.6022 -5.26516 39.9734
C -6.37532 -0.555739 33.2387
C -11.8516 -5.54974 34.9871
C -10.8329 -5.95397 34.1075
C -7.60807 -1.24941 33.2489
C -13.0677 -6.25241 34.9809
C -8.63591 -0.851425 34.1191
H -5.9312 0.537888 28.7481
H -9.83451 -0.631648 30.1091
H 1.68537 4.48736 5.10597
H 0.729841 -1.43846 7.1974
H -8.96578 -4.09762 39.2662
H -12.7525 -3.49515 41.1924
H -9.89161 -5.41875 34.1012
H -13.8582 -5.95178 35.6532
N -5.76781 -1.1441 26.6844
N -12.4398 -5.42408 30.6076
N -10.2552 -2.50036 28.2318
N -11.3341 -2.36258 29.0202
N 1.02956 2.22671 3.85161
N 3.19343 -0.403699 6.87658
N 4.12314 2.90124 6.18183
N 3.36589 3.4886 7.12334
N -16.9174 -6.44432 38.1192
N -10.29 -2.45022 40.9245
N -13.9256 -5.70736 40.2381
N -14.6975 -5.12222 41.169
N -5.30476 -0.936468 32.3481
N -11.6521 -4.43448 35.8829
N -9.86896 -1.55688 34.1083
N -10.8877 -1.22228 34.9174
O -8.14259 -2.70085 26.4978
O -4.98317 -0.128516 26.4636
O -5.48296 -2.28165 26.1189
O -13.4793 -5.15916 31.3461
O -11.3353 -4.77584 30.8401
O -1.66538 1.53988 4.40903
O 1.96712 2.81182 3.16296
O 0.955858 0.927135 3.82405
O 2.42061 0.412843 7.53396
O -2.9148 -0.160664 6.85096
O -7.62456 -0.622547 38.5662
O -15.8883 -5.90326 37.5337
O -12.397 -1.24873 38.0962
O -11.0983 -1.60387 41.4958
O -9.0097 -2.21882 40.9781
O -7.8227 -2.24649 32.4152
O -4.44425 -0.051366 31.9349
O -12.4985 -2.18409 32.0355
O -12.6561 -3.9039 36.5201
O -10.4619 -3.94768 36.0857
68
 Atoms. Timestep: 70230
C -6.79604 -0.869788 27.6274
C -7.85567 0.183722 29.5755
C -6.77625 0.0643611 28.6814
C -7.93011 -1.70453 27.4766
C -8.96796 -0.658889 29.4085
C -9.01236 -1.59948 28.3664
C 0.181024 2.99677 4.7213
C 2.64895 -1.57737 6.22123
C 0.677781 4.1684 5.32189
C -1.14587 2.5946 4.99885
C 5.97336 4.49007 6.49615
C 5.44715 3.33634 5.89115
C -10.4651 -5.75058 38.9145
C -10.8334 -3.77535 40.3209
C -10.0107 -4.54467 39.4808
C -11.7993 -6.15664 39.1515
C -12.146 -4.20957 40.564
C -12.6337 -5.39289 39.986
C -6.38102 -0.508074 33.2161
C -11.8984 -5.58702 35.0148
C -10.8666 -5.93903 34.1277
C -7.59947 -1.22859 33.1975
C -13.0984 -6.31535 34.9785
C -8.63837 -0.884754 34.078
H -5.91004 0.701946 28.8049
H -9.80078 -0.585741 30.094
H 1.6869 4.48883 5.09795
H 0.727728 -1.4389 7.18791
H -9.00213 -4.21056 39.2769
H -12.7889 -3.62777 41.2115
H -9.93691 -5.38452 34.1462
H -13.8981 -6.05596 35.6572
N -5.67328 -0.942922 26.7178
N -12.4585 -5.33602 30.6431
N -10.1433 -2.44267 28.1874
N -11.233 -2.3499 28.9665
N 1.03356 2.2266 3.84617
N 3.19032 -0.403018 6.86625
N 4.1244 2.90088 6.17503
N 3.36695 3.489 7.11556
N -16.9498 -6.54839 38.1155
N -10.3298 -2.57428 40.9451
N -13.9567 -5.839 40.2477
N -14.7326 -5.25548 41.1759
N -5.30137 -0.826027 32.3099
N -11.73 -4.49568 35.9462
N -9.85698 -1.61499 34.0365
N -10.892 -1.31828 34.8392
O -8.00537 -2.56046 26.4783
O -4.89857 0.0895165 26.5412
O -5.36737 -2.05601 26.1149
O -13.5165 -5.09973 31.3641
O -11.37 -4.67266 30.9074
O -1.66123 1.53823 4.40376
O 1.97109 2.81141 3.15703
O 0.960771 0.926321 3.82042
O 2.41636 0.414849 7.52032
O -2.91694 -0.160405 6.84276
O -7.64736 -0.743783 38.5733
O -15.9443 -5.9932 37.5028
O -12.4043 -1.35329 38.1078
O -11.14 -1.7322 41.5196
O -9.05022 -2.33924 40.998
O -7.79211 -2.1991 32.3278
O -4.43904 0.0861657 31.963
O -5.10852 -2.04671 31.9034
O -12.7475 -4.01775 36.603
O -10.556 -3.97404 36.1569
68
 Atoms. Timestep: 80237
C -6.67334 -0.65001 27.6787
C -7.81756 0.339686 29.6129
C -6.71301 0.269469 28.7449
C -7.77266 -1.52375 27.4915
C -8.89468 -0.539808 29.4091
C -8.87799 -1.47046 28.3572
C 0.183979 2.99718 4.7162
C 2.64807 -1.57774 6.21451
C 0.680311 4.16928 5.31581
C -1.14266 2.59477 4.99385
C 5.97391 4.49113 6.48958
C 5.44826 3.33688 5.88547
C -10.5081 -5.90997 38.9109
C -10.8678 -3.9468 40.3348
C -10.0497 -4.70968 39.4844
C -11.8383 -6.32153 39.1559
C -12.1791 -4.38357 40.582
C -12.6691 -5.56358 39.9989
C -6.39635 -0.433956 33.18
C -11.9953 -5.6522 35.0417
C -10.9379 -5.91582 34.154
C -7.5848 -1.20312 33.1087
C -8.52692 0.0691403 34.95
C -8.64652 -0.950409 33.9927
H -5.87418 0.93607 28.8986
H -9.74635 -0.504733 30.075
H 1.68923 4.48997 5.09178
H 0.726957 -1.43926 7.18084
H -9.04234 -4.37459 39.2757
H -12.8189 -3.80604 41.2361
H -10.0334 -5.32463 34.2175
H -13.981 -6.23674 35.6291
N -5.52695 -0.667865 26.7945
N -12.4806 -5.19559 30.6929
N -9.96866 -2.35722 28.1444
N -11.0729 -2.3275 28.908
N 1.03673 2.22656 3.84175
N 3.18888 -0.402957 6.85851
N 4.12584 2.90116 6.16957
N 3.36811 3.48965 7.10969
N -17.0004 -6.69479 38.0906
N -10.3618 -2.74887 40.9626
N -13.9919 -6.01014 40.2603
N -14.7694 -5.42556 41.1866
N -5.297 -0.644383 32.2623
N -11.8879 -4.5999 36.026
N -9.83376 -1.72591 33.8948
N -10.897 -1.50337 34.685
O -7.79402 -2.37069 26.4832
O -4.76632 0.382941 26.6784
O -5.19152 -1.74646 26.1468
O -13.5649 -5.00023 31.3867
O -11.419 -4.50807 31
O -1.65754 1.53802 4.39964
O 1.97407 2.8112 3.15238
O 0.964266 0.926739 3.81679
O 2.41445 0.415839 7.51096
O -2.91628 -0.160488 6.83593
O -7.68566 -0.904339 38.574
O -16.0315 -6.12221 37.4366
O -12.4266 -1.49902 38.0964
O -11.1695 -1.91074 41.5467
O -9.08236 -2.51102 41.0065
O -7.73058 -2.13454 32.1892
O -4.42918 0.30085 32.0412
O -5.10798 -1.79799 31.6924
O -12.9323 -4.20693 36.6972
O -10.7457 -4.02249 36.2641
68
 Atoms. Timestep: 90239
C -6.35469 -0.195709 27.875
C -7.6189 0.662514 29.7986
C -6.48387 0.683183 28.9683
C -7.39639 -1.12255 27.6215
C -8.63668 -0.268576 29.5284
C -8.5302 -1.16203 28.4502
C 0.186361 2.9974 4.70972
C 2.64679 -1.57779 6.20712
C 0.682173 4.16981 5.30882
C -1.13999 2.59479 4.98774
C 5.97337 4.49145 6.48256
C 5.44811 3.33689 5.87909
C -10.7509 -6.17735 38.7853
C -11.0265 -4.24243 40.2636
C -10.248 -5.00376 39.3745
C -12.078 -6.57209 39.0651
C -12.3387 -4.6605 40.5414
C -12.8686 -5.81878 39.9489
C -6.34401 -0.323468 33.1979
C -12.3117 -5.8491 35.0243
C -11.1422 -5.88888 34.2456
C -7.39104 -1.25258 32.9549
C -8.6925 -0.284639 34.7637
C -8.55668 -1.23377 33.739
H -10.3232 -5.11199 29.1781
H -9.51235 -0.303174 30.1629
H 1.69086 4.4906 5.08453
H 0.725905 -1.43944 7.1736
H -9.2388 -4.6891 39.1434
H -12.9485 -4.08509 41.2251
H -10.3578 -5.17173 34.4453
H -9.59347 -0.271937 35.3609
N -5.17653 -0.121074 27.0353
N -12.3703 -4.91856 30.9123
N -9.55698 -2.10652 28.1756
N -10.6731 -2.18501 28.9176
N 1.03928 2.22694 3.83559
N 3.18718 -0.402577 6.85058
N 4.12598 2.90094 6.1636
N 3.36834 3.48943 7.10349
N -12.6549 -0.455135 37.9067
N -10.4823 -3.06196 40.8938
N -14.1932 -6.24538 40.235
N -14.9462 -5.64916 41.1736
N -5.13896 -0.28068 32.3868
N -12.4698 -4.85749 36.064
N -9.58868 -2.17473 33.4707
N -10.7338 -2.1989 34.1713
O -7.33588 -1.93703 26.5884
O -4.44904 0.959188 27.0121
O -4.78393 -1.14137 26.3283
O -13.447 -4.88945 31.6425
O -11.3902 -4.12196 31.2279
O -1.6545 1.53764 4.39398
O 1.97637 2.81138 3.14593
O 0.967239 0.926913 3.81124
O 2.41245 0.416497 7.50176
O -2.91573 -0.160353 6.82861
O -7.96189 -1.13116 38.4723
O -16.3852 -6.36733 37.1771
O -12.709 -1.75528 37.9139
O -11.2547 -2.232 41.5337
O -9.20245 -2.82541 40.8711
O -7.3039 -2.13404 31.9817
O -8.87212 -5.86091 32.5908
O -4.92865 -1.13317 31.4267
O -13.6192 -4.68029 36.6489
O -11.4703 -4.10585 36.4253
68
 Atoms. Timestep: 100000
C -6.17095 -0.150664 27.9496
C -7.46169 0.65435 29.8787
C -6.32405 0.711048 29.0533
C -7.19276 -1.09458 27.6779
C -8.45687 -0.295807 29.5933
C -8.32939 -1.16893 28.5014
C 0.186673 2.99755 4.70178
C 2.64666 -1.57789 6.19949
C 0.682346 4.16991 5.30085
C -1.13988 2.59479 4.9802
C 5.97305 4.4912 6.47534
C 5.44791 3.33668 5.87192
C -11.028 -6.17399 38.7036
C -11.3152 -4.22435 40.1614
C -10.53 -4.99439 39.2854
C -12.3599 -6.56295 38.9755
C -12.6294 -4.63924 40.4342
C -13.1557 -5.80206 39.8485
C -6.17761 -0.312671 33.3106
C -12.3237 -5.87077 35.0098
C -11.0989 -5.86683 34.3196
C -7.14978 -1.30508 33.0216
C -8.62715 -0.373719 34.7119
C -8.36639 -1.337 33.7246
H -10.1778 -5.07273 29.2778
H -9.33436 -0.357501 30.2234
H 1.69119 4.49081 5.07626
H 0.725358 -1.43986 7.16667
H -9.51917 -4.68085 39.0597
H -13.2437 -4.05772 41.109
H -10.3702 -5.10322 34.5507
H -9.56723 -0.399103 35.247
N -4.98917 -0.0418316 27.1182
N -12.2405 -4.94258 31.0018
N -9.33959 -2.12521 28.2069
N -10.4624 -2.22641 28.9369
N 1.03995 2.22729 3.8273
N 3.18693 -0.402749 6.84292
N 4.12562 2.90054 6.15688
N 3.36783 3.48876 7.09723
N -12.9211 -0.466346 37.8464
N -10.7751 -3.03892 40.7852
N -14.4812 -6.22727 40.1333
N -15.2338 -5.63185 41.0733
N -4.92365 -0.22112 32.5839
N -12.6182 -4.8515 35.9912
N -9.32338 -2.34046 33.411
N -10.5182 -2.40234 34.0209
O -7.11161 -1.89152 26.6327
O -4.28458 1.0536 27.1115
O -4.56971 -1.04613 26.4037
O -13.3 -4.98328 31.7566
O -11.307 -4.08386 31.2949
O -1.65432 1.53769 4.38648
O 1.97692 2.81183 3.13732
O 0.968422 0.927352 3.80295
O 2.41176 0.416264 7.49421
O -2.9156 -0.160533 6.82083
O -8.24288 -1.12499 38.3875
O -16.605 -6.39918 37.1601
O -13.0098 -1.76433 37.8386
O -11.5528 -2.20136 41.4093
O -9.49401 -2.8063 40.7749
O -6.93529 -2.21002 32.0912
O -8.61923 -5.91313 32.9889
O -4.72528 -0.878435 31.4782
O -13.8143 -4.73132 36.4922
O -11.7016 -4.00849 36.3702
68
 Atoms. Timestep: 100244
C -6.16548 -0.151349 27.9501
C -7.45585 0.654687 29.8784
C -6.31839 0.711124 29.0533
C -7.18712 -1.09595 27.6785
C -8.45096 -0.29615 29.5931
C -8.32365 -1.17016 28.5015
C 0.189757 2.99827 4.70275
C 2.64533 -1.57915 6.20035
C 0.685971 4.1711 5.30165
C -1.13648 2.59529 4.98109
C 5.97409 4.49267 6.47614
C 5.44859 3.33766 5.87277
C -11.0315 -6.17376 38.7017
C -11.318 -4.22272 40.1588
C -10.5333 -4.99345 39.2832
C -12.3631 -6.563 38.9733
C -12.632 -4.63801 40.4314
C -13.1583 -5.80152 39.8459
C -6.17341 -0.310189 33.311
C -12.322 -5.87064 35.0085
C -11.0972 -5.86659 34.3193
C -7.14495 -1.30364 33.0217
C -8.6228 -0.371619 34.7105
C -8.36165 -1.33578 33.7238
H -10.1744 -5.07517 29.2779
H -9.32832 -0.357739 30.2229
H 1.69457 4.49221 5.07712
H 0.724924 -1.44103 7.16744
H -9.52273 -4.67956 39.0577
H -13.2459 -4.05601 41.1059
H -10.3689 -5.10223 34.5506
H -9.56287 -0.397207 35.245
N -4.98374 -0.0424588 27.119
N -12.2366 -4.94428 31.0009
N -9.33352 -2.12698 28.207
N -10.4565 -2.2281 28.9368
N 1.0422 2.22737 3.82827
N 3.18596 -0.40363 6.8436
N 4.12663 2.90134 6.15771
N 3.36939 3.48992 7.0981
N -12.9193 -0.463918 37.845
N -10.7778 -3.03674 40.7824
N -14.4835 -6.22703 40.1305
N -15.2357 -5.63128 41.0704
N -4.91939 -0.218246 32.585
N -12.6168 -4.85039 35.9891
N -9.31788 -2.34008 33.41
N -10.5132 -2.40207 34.0189
O -7.1061 -1.89369 26.6337
O -4.27879 1.05291 27.1127
O -4.56529 -1.04718 26.4043
O -13.2963 -4.98472 31.7553
O -11.3035 -4.08506 31.294
O -1.65126 1.53784 4.38752
O 1.97911 2.81218 3.13833
O 0.96984 0.927302 3.8039
O 2.41161 0.416006 7.49498
O -2.91307 -0.161192 6.82153
O -8.24405 -1.12255 38.3856
O -16.6047 -6.39974 37.1596
O -13.0091 -1.76199 37.837
O -11.5549 -2.19838 41.406
O -9.49681 -2.80396 40.7727
O -6.92997 -2.2094 32.0921
O -8.61779 -5.9126 32.9904
O -4.72074 -0.875899 31.4795
O -13.8131 -4.73057 36.4893
O -11.7012 -4.00619 36.3679
68
 Atoms. Timestep: 110249
C -6.07996 -0.206638 27.9835
C -7.39675 0.615398 29.8877
C -6.24959 0.667022 29.0758
C -7.09442 -1.15993 27.712
C -8.38366 -0.343688 29.6026
C -8.23968 -1.23001 28.5234
C 0.193848 2.99911 4.69806
C 2.64354 -1.58041 6.19396
C 0.689554 4.17279 5.29585
C -1.13225 2.59563 4.97698
C 5.97488 4.49428 6.47035
C 5.44986 3.33836 5.86815
C -11.1253 -6.14704 38.6816
C -11.426 -4.18711 40.1245
C -10.6343 -4.96085 39.258
C -12.4581 -6.5375 38.9476
C -12.7401 -4.60445 40.3927
C -13.26 -5.773 39.8117
C -6.12329 -0.283985 33.3421
C -12.3154 -5.84367 35
C -11.0782 -5.83481 34.3332
C -7.07698 -1.29355 33.05
C -8.59589 -0.356962 34.6994
C -8.30612 -1.3303 33.73
H -10.1144 -5.11623 29.3019
H -9.26801 -0.402005 30.2229
H 1.69804 4.4943 5.07091
H 0.723091 -1.44248 7.16127
H -9.62384 -4.6441 39.036
H -13.3591 -4.02018 41.0606
H -10.3619 -5.06075 34.569
H -9.54469 -0.38734 35.2182
N -4.88977 -0.0989843 27.163
N -12.199 -4.97275 30.9961
N -9.242 -2.19498 28.2294
N -10.3733 -2.29095 28.9471
N 1.04666 2.22788 3.82414
N 3.18368 -0.40396 6.83603
N 4.12813 2.90149 6.15379
N 3.37076 3.49037 7.09391
N -5.62335 -0.438842 37.8377
N -10.8924 -2.9963 40.7443
N -14.5849 -6.2012 40.0938
N -15.3401 -5.60632 41.0318
N -4.85956 -0.18406 32.6343
N -12.6413 -4.81219 35.9588
N -9.24649 -2.3475 33.4101
N -10.4564 -2.40749 33.9898
O -6.99844 -1.97091 26.6788
O -4.1759 0.990651 27.1734
O -4.47549 -1.09719 26.4369
O -13.2713 -5.00444 31.7329
O -11.2727 -4.10691 31.292
O -1.64661 1.53736 4.38442
O 1.98328 2.81262 3.1337
O 0.974946 0.927717 3.80073
O 2.40863 0.416722 7.48536
O -2.91256 -0.161737 6.81495
O -8.33147 -1.09841 38.3638
O -16.6686 -6.38446 37.1723
O -13.0981 -1.73628 37.8246
O -11.6763 -2.15304 41.3528
O -9.61106 -2.765 40.7485
O -6.8331 -2.21053 32.1388
O -8.5764 -5.86638 33.0457
O -4.63857 -0.846102 31.5355
O -13.8473 -4.70294 36.4381
O -11.7456 -3.94596 36.3359
68
 Atoms. Timestep: 120254
C -6.03471 -0.232875 28.0042
C -7.36908 0.597631 29.8929
C -6.21563 0.647088 29.0899
C -7.04426 -1.19173 27.732
C -8.35051 -0.366593 29.6069
C -8.19528 -1.26 28.5354
C 0.198022 2.99989 4.69496
C 2.64192 -1.58154 6.18871
C 0.693051 4.17451 5.29148
C -1.12788 2.59595 4.97433
C 5.97589 4.49606 6.4656
C 5.45154 3.33915 5.86472
C -11.1638 -6.13281 38.6694
C -11.47 -4.16837 40.1052
C -10.6756 -4.94392 39.2429
C -12.4972 -6.52348 38.9336
C -12.784 -4.58634 40.3723
C -13.3014 -5.75728 39.794
C -6.10277 -0.270884 33.3546
C -12.315 -5.83105 34.994
C -11.0726 -5.82041 34.337
C -7.04843 -1.28791 33.0626
C -8.58513 -0.348057 34.6936
C -8.28287 -1.32614 33.7328
H -10.0871 -5.13552 29.3177
H -9.23947 -0.423458 30.2208
H 1.70137 4.4964 5.06621
H 0.721396 -1.44366 7.15593
H -9.66523 -4.62619 39.0219
H -13.4049 -4.00074 41.0373
H -10.3617 -5.04193 34.5739
H -9.53754 -0.380269 35.2057
N -4.83874 -0.125358 27.1913
N -12.186 -4.98611 30.993
N -9.19222 -2.23043 28.2411
N -10.3284 -2.32482 28.9511
N 1.05131 2.22825 3.82185
N 3.18138 -0.40406 6.82945
N 4.13008 2.90177 6.15096
N 3.37243 3.49111 7.09054
N -5.65599 -0.423832 37.8311
N -10.939 -2.97513 40.7225
N -14.626 -6.18648 40.0759
N -15.3822 -5.59146 41.013
N -4.83502 -0.167842 32.6544
N -12.6542 -4.79427 35.9425
N -9.21621 -2.34926 33.4115
N -10.4323 -2.4078 33.978
O -6.93807 -2.01073 26.7062
O -4.11799 0.95956 27.2155
O -4.42793 -1.11769 26.4552
O -13.2659 -5.01373 31.7188
O -11.2644 -4.11619 31.2914
O -1.64166 1.53675 4.38291
O 1.98769 2.81278 3.13095
O 0.980241 0.928018 3.79963
O 2.40552 0.417834 7.47629
O -2.91253 -0.162112 6.80966
O -8.36624 -1.08318 38.3521
O -16.694 -6.37599 37.1739
O -13.1328 -1.72094 37.8159
O -11.7256 -2.12916 41.3237
O -9.65746 -2.74467 40.7323
O -6.79182 -2.21072 32.1609
O -8.56231 -5.84468 33.0661
O -4.60345 -0.834424 31.5606
O -13.8642 -4.68918 36.4125
O -11.7671 -3.91869 36.3183
68
 Atoms. Timestep: 130259
C -6.00671 -0.245599 28.0171
C -7.35269 0.589763 29.8958
C -6.19517 0.638168 29.0986
C -7.0129 -1.2081 27.7443
C -8.33042 -0.37776 29.609
C -8.16769 -1.27549 28.5424
C 0.20211 3.00066 4.69334
C 2.64049 -1.58248 6.1849
C 0.696416 4.17616 5.28858
C -1.12358 2.59627 4.97312
C 5.97692 4.4978 6.46224
C 5.4533 3.33995 5.86269
C -11.1811 -6.12473 38.6607
C -11.4901 -4.15758 40.0922
C -10.6944 -4.93428 39.2322
C -12.5147 -6.51555 38.9244
C -12.804 -4.57593 40.3591
C -13.32 -5.74832 39.7828
C -6.09179 -0.263114 33.3596
C -12.3152 -5.82452 34.9894
C -11.0702 -5.81307 34.3373
C -7.03325 -1.2841 33.0683
C -8.57897 -0.342142 34.6895
C -8.27031 -1.32293 33.7336
H -10.0719 -5.14494 29.3277
H -9.22238 -0.433915 30.2185
H 1.70456 4.49841 5.06303
H 0.719879 -1.44463 7.15194
H -9.68413 -4.61604 39.0115
H -13.4258 -3.9895 41.0225
H -10.3623 -5.03218 34.5744
H -9.53313 -0.375201 35.1983
N -4.80686 -0.137942 27.2094
N -12.1798 -4.99253 30.9906
N -9.16089 -2.24955 28.2477
N -10.3002 -2.34351 28.9528
N 1.0559 2.22859 3.8211
N 3.1792 -0.404027 6.82429
N 4.13212 2.90209 6.14946
N 3.37416 3.49191 7.08845
N -5.66939 -0.414098 37.8254
N -10.9605 -2.96282 40.7075
N -14.6444 -6.17811 40.0649
N -15.401 -5.58276 41.0015
N -4.82203 -0.158671 32.6633
N -12.6612 -4.78486 35.9323
N -9.19991 -2.34928 33.4121
N -10.4191 -2.40708 33.9721
O -6.89983 -2.03217 26.7234
O -4.08117 0.943345 27.2438
O -4.3987 -1.12567 26.4658
O -13.2642 -5.01827 31.7097
O -11.2614 -4.11984 31.2907
O -1.63673 1.5362 4.38285
O 1.99206 2.81288 3.12976