units           real
atom_style      full
boundary        p p p

pair_style      lj/cut 12.500
bond_style      harmonic
angle_style     cosine/periodic
dihedral_style  harmonic
improper_style  fourier

dielectric      1.0
special_bonds   lj/coul 0.0 0.0 1.0
pair_modify     tail yes mix arithmetic
box tilt        large
read_data   all_input_data
Reading data file ...
  triclinic box = (0 0 0) to (6.053586 6.150003 39.337001) with tilt (1.09419 0.121841 14.406954)
WARNING: Triclinic box skew is large (src/domain.cpp:224)
  2 by 1 by 10 MPI processor grid
  reading atoms ...
  68 atoms
  scanning bonds ...
  3 = max bonds/atom
  scanning angles ...
  3 = max angles/atom
  scanning dihedrals ...
  12 = max dihedrals/atom
  scanning impropers ...
  3 = max impropers/atom
  reading bonds ...
  68 bonds
  reading angles ...
  100 angles
  reading dihedrals ...
  136 dihedrals
  reading impropers ...
  96 impropers
Finding 1-2 1-3 1-4 neighbors ...
  special bond factors lj:    0        0        1       
  special bond factors coul:  0        0        1       
     3 = max # of 1-2 neighbors
     6 = max # of 1-3 neighbors
     9 = max # of special neighbors
  special bonds CPU = 0.001 seconds
  read_data CPU = 0.010 seconds

#### Atom Groupings ####
group           1        id   1:68
68 atoms in group 1
group           1-1      id   1:6 25:26 33:36 49:53
17 atoms in group 1-1
group           1-2      id   7:12 27:28 37:40 54:58
17 atoms in group 1-2
group           1-3      id   13:18 29:30 41:44 59:63
17 atoms in group 1-3
group           1-4      id   19:24 31:32 45:48 64:68
17 atoms in group 1-4
#### END Atom Groupings ####

dump           structure_xyzmov 1 xyz 100000 structure_mov.xyz
dump_modify    structure_xyzmov element C H N O
min_style       cg
print           "MinStep,CellMinStep,AtomMinStep,FinalStep,Energy,EDiff" file p1_structure.min.csv screen no
variable        min_eval   equal 1.00e-06
variable        prev_E     equal 50000.00
variable        iter       loop 100000
label           loop_min
min_style       cg
fix             1 all box/relax tri 10000 vmax 0.05
minimize        1.0e-15 1.0e-15 10000 100000
WARNING: Using 'neigh_modify every 1 delay 0 check yes' setting during minimization (src/min.cpp:187)
----------------------------------------------------------
Using INTEL Package without Coprocessor.
Compiler: Intel LLVM C++ 202202.0 / Intel(R) oneAPI DPC++/C++ Compiler 2022.2.1 (2022.2.1.20221020)
SIMD compiler directives: Enabled
Precision: mixed
----------------------------------------------------------
Generated 6 of 6 mixed pair_coeff terms from arithmetic mixing rule
Neighbor list info ...
  update every 1 steps, delay 0 steps, check yes
  max neighbors/atom: 2000, page size: 100000
  master list distance cutoff = 14.5
  ghost atom cutoff = 14.5
  binsize = 7.25, bins = 2 3 6
  1 neighbor lists, perpetual/occasional/extra = 1 0 0
  (1) pair lj/cut/intel, perpetual
      attributes: half, newton on, intel
      pair build: half/bin/newton/tri/intel
      stencil: half/bin/3d/tri
      bin: intel
WARNING: Bond/angle/dihedral extent > half of periodic box length (src/domain.cpp:940)
Per MPI rank memory allocation (min/avg/max) = 15.51 | 15.81 | 16.35 Mbytes
   Step          Temp          E_pair         E_mol          TotEng         Press          Volume    
         0   0              105.11975      630.91226      736.03201      86315.215      1464.4997    
        15   0              101.35852      164.46582      265.82433      11338.636      1273.398     
WARNING: Bond/angle/dihedral extent > half of periodic box length (src/domain.cpp:940)
Loop time of 0.0362342 on 40 procs for 15 steps with 68 atoms

89.9% CPU use with 20 MPI tasks x 2 OpenMP threads

Minimization stats:
  Stopping criterion = linesearch alpha is zero
  Energy initial, next-to-last, final = 
      736.032009644359   224.980341301482   237.954108583418
  Force two-norm initial, final = 131469.42 796.88664
  Force max component initial, final = 38433.87 512.66674
  Final line search alpha, max atom move = 1.9327577e-14 9.9086059e-12
  Iterations, force evaluations = 15 91

MPI task timing breakdown:
Section |  min time  |  avg time  |  max time  |%varavg| %total
---------------------------------------------------------------
Pair    | 0.00044142 | 0.0045039  | 0.0068643  |   3.0 | 12.43
Bond    | 4.1399e-05 | 0.0029702  | 0.0054178  |   3.5 |  8.20
Neigh   | 0.0025353  | 0.0026169  | 0.0028067  |   0.1 |  7.22
Comm    | 0.010615   | 0.015259   | 0.022649   |   2.8 | 42.11
Output  | 0          | 0          | 0          |   0.0 |  0.00
Modify  | 1.9029e-05 | 0.00089655 | 0.00161    |   0.0 |  2.47
Other   |            | 0.009988   |            |       | 27.56

Nlocal:            3.4 ave           7 max           0 min
Histogram: 3 1 1 0 5 3 0 5 1 1
Nghost:        2002.45 ave        2405 max        1856 min
Histogram: 9 3 4 0 0 0 2 0 0 2
Neighs:         1169.3 ave        2329 max           0 min
Histogram: 3 2 0 0 5 3 0 2 3 2

Total # of neighbors = 23386
Ave neighs/atom = 343.91176
Ave special neighs/atom = 4.9411765
Neighbor list builds = 12
Dangerous builds = 4
unfix           1
min_style       fire
variable        tempstp    equal $(step)
variable        tempstp    equal 15
variable        CellMinStep equal ${tempstp}
variable        CellMinStep equal 15
minimize        1.0e-15 1.0e-15 10000 100000
WARNING: Using 'neigh_modify every 1 delay 0 check yes' setting during minimization (src/min.cpp:187)
----------------------------------------------------------
Using INTEL Package without Coprocessor.
Compiler: Intel LLVM C++ 202202.0 / Intel(R) oneAPI DPC++/C++ Compiler 2022.2.1 (2022.2.1.20221020)
SIMD compiler directives: Enabled
Precision: mixed
----------------------------------------------------------
Generated 6 of 6 mixed pair_coeff terms from arithmetic mixing rule
  Parameters for fire: 
    dmax delaystep dtgrow dtshrink alpha0 alphashrink tmax tmin    integrator halfstepback 
     0.1        20    1.1      0.5   0.25        0.99   10 0.02 eulerimplicit          yes 
WARNING: Bond/angle/dihedral extent > half of periodic box length (src/domain.cpp:940)
Per MPI rank memory allocation (min/avg/max) = 14.41 | 14.76 | 15.26 Mbytes
   Step          Temp          E_pair         E_mol          TotEng         Press     
        15   0              101.35852      164.46931      265.82783      11338.636    
     10015   3.2630564e-05  37.269166      22.536669      59.805842      1021.8918    
WARNING: Bond/angle/dihedral extent > half of periodic box length (src/domain.cpp:940)
Loop time of 2.24134 on 40 procs for 10000 steps with 68 atoms

95.4% CPU use with 20 MPI tasks x 2 OpenMP threads

Minimization stats:
  Stopping criterion = max iterations
  Energy initial, next-to-last, final = 
      265.827825514119   59.8057983447344   59.8058358154819
  Force two-norm initial, final = 474.85298 0.25271291
  Force max component initial, final = 169.74992 0.052562994
  Final line search alpha, max atom move = 0 0
  Iterations, force evaluations = 10000 10533

MPI task timing breakdown:
Section |  min time  |  avg time  |  max time  |%varavg| %total
---------------------------------------------------------------
Pair    | 0.038241   | 0.35684    | 0.53402    |  25.5 | 15.92
Bond    | 0.0016414  | 0.30883    | 0.55138    |  34.7 | 13.78
Neigh   | 0.00056115 | 0.00057817 | 0.00059983 |   0.0 |  0.03
Comm    | 0.82876    | 1.1715     | 1.7995     |  25.8 | 52.27
Output  | 3.9642e-05 | 4.0558e-05 | 4.9285e-05 |   0.0 |  0.00
Modify  | 0.00090775 | 0.099235   | 0.18477    |  16.2 |  4.43
Other   |            | 0.3043     |            |       | 13.58

Nlocal:            3.4 ave           6 max           0 min
Histogram: 3 0 0 1 0 8 1 0 4 3
Nghost:        2032.25 ave        2423 max        1870 min
Histogram: 4 7 3 2 0 0 2 0 0 2
Neighs:         1179.9 ave        2485 max           0 min
Histogram: 3 1 0 2 5 3 1 1 2 2

Total # of neighbors = 23598
Ave neighs/atom = 347.02941
Ave special neighs/atom = 4.9411765
Neighbor list builds = 1
Dangerous builds = 0
variable        AtomMinStep equal $(step)
variable        AtomMinStep equal 10015
variable        temppe     equal $(pe)
variable        temppe     equal 59.805835815481884765
variable        min_E      equal abs(${prev_E}-${temppe})
variable        min_E      equal abs(50000-${temppe})
variable        min_E      equal abs(50000-59.8058358154819)
print           "${iter},${CellMinStep},${AtomMinStep},${AtomMinStep},$(pe),${min_E}" append p1_structure.min.csv screen no
if              "${min_E} < ${min_eval}" then "jump SELF break_min"
variable        prev_E     equal ${temppe}
variable        prev_E     equal 59.8058358154819
next            iter
jump            SELF loop_min
min_style       cg
fix             1 all box/relax tri 10000 vmax 0.05
minimize        1.0e-15 1.0e-15 10000 100000
WARNING: Using 'neigh_modify every 1 delay 0 check yes' setting during minimization (src/min.cpp:187)
----------------------------------------------------------
Using INTEL Package without Coprocessor.
Compiler: Intel LLVM C++ 202202.0 / Intel(R) oneAPI DPC++/C++ Compiler 2022.2.1 (2022.2.1.20221020)
SIMD compiler directives: Enabled
Precision: mixed
----------------------------------------------------------
Generated 6 of 6 mixed pair_coeff terms from arithmetic mixing rule
WARNING: Bond/angle/dihedral extent > half of periodic box length (src/domain.cpp:940)
Per MPI rank memory allocation (min/avg/max) = 15.54 | 15.91 | 16.38 Mbytes
   Step          Temp          E_pair         E_mol          TotEng         Press          Volume    
     10015   3.2630564e-05  37.269167      23.801562      61.070736      1021.8919      1273.398     
     10431   3.2630564e-05  36.308536      21.562638      57.871181      10233.447      1047.4152    
WARNING: Bond/angle/dihedral extent > half of periodic box length (src/domain.cpp:940)
Loop time of 0.708315 on 40 procs for 416 steps with 68 atoms

95.7% CPU use with 20 MPI tasks x 2 OpenMP threads

Minimization stats:
  Stopping criterion = linesearch alpha is zero
  Energy initial, next-to-last, final = 
      61.0707291308434   24.9139026690371   24.9139026690371
  Force two-norm initial, final = 311.17332 17.7928
  Force max component initial, final = 196.38542 11.226769
  Final line search alpha, max atom move = 1.5464183e-10 1.7361282e-09
  Iterations, force evaluations = 416 1636

MPI task timing breakdown:
Section |  min time  |  avg time  |  max time  |%varavg| %total
---------------------------------------------------------------
Pair    | 0.0052518  | 0.091318   | 0.12888    |  13.1 | 12.89
Bond    | 0.00041912 | 0.05905    | 0.10318    |  14.2 |  8.34
Neigh   | 0.079154   | 0.086067   | 0.091741   |   1.1 | 12.15
Comm    | 0.18993    | 0.26976    | 0.42948    |  13.1 | 38.09
Output  | 0          | 0          | 0          |   0.0 |  0.00
Modify  | 0.00016639 | 0.01795    | 0.032823   |   6.9 |  2.53
Other   |            | 0.1842     |            |       | 26.00

Nlocal:            3.4 ave           6 max           0 min
Histogram: 3 1 0 1 0 5 2 0 6 2
Nghost:        2591.15 ave        3035 max        2367 min
Histogram: 2 4 7 3 0 0 1 1 0 2
Neighs:         1440.6 ave        2995 max           0 min
Histogram: 3 1 0 4 4 1 1 1 4 1

Total # of neighbors = 28812
Ave neighs/atom = 423.70588
Ave special neighs/atom = 4.9411765
Neighbor list builds = 391
Dangerous builds = 164
unfix           1
min_style       fire
variable        tempstp    equal $(step)
variable        tempstp    equal 10431
variable        CellMinStep equal ${tempstp}
variable        CellMinStep equal 10431
minimize        1.0e-15 1.0e-15 10000 100000
WARNING: Using 'neigh_modify every 1 delay 0 check yes' setting during minimization (src/min.cpp:187)
----------------------------------------------------------
Using INTEL Package without Coprocessor.
Compiler: Intel LLVM C++ 202202.0 / Intel(R) oneAPI DPC++/C++ Compiler 2022.2.1 (2022.2.1.20221020)
SIMD compiler directives: Enabled
Precision: mixed
----------------------------------------------------------
Generated 6 of 6 mixed pair_coeff terms from arithmetic mixing rule
  Parameters for fire: 
    dmax delaystep dtgrow dtshrink alpha0 alphashrink tmax tmin    integrator halfstepback 
     0.1        20    1.1      0.5   0.25        0.99   10 0.02 eulerimplicit          yes 
WARNING: Bond/angle/dihedral extent > half of periodic box length (src/domain.cpp:940)
Per MPI rank memory allocation (min/avg/max) = 14.49 | 14.9 | 15.35 Mbytes
   Step          Temp          E_pair         E_mol          TotEng         Press     
     10431   0              36.308536      21.562638      57.871174      10233.447    
     20431   0.00045315102  29.502867      23.334041      52.836999      5463.7668    
WARNING: Bond/angle/dihedral extent > half of periodic box length (src/domain.cpp:940)
Loop time of 2.60334 on 40 procs for 10000 steps with 68 atoms

94.8% CPU use with 20 MPI tasks x 2 OpenMP threads

Minimization stats:
  Stopping criterion = max iterations
  Energy initial, next-to-last, final = 
      57.8711741999424   52.8368763035772   52.8369088040619
  Force two-norm initial, final = 10.088514 0.095823691
  Force max component initial, final = 4.4264965 0.017434077
  Final line search alpha, max atom move = 0 0
  Iterations, force evaluations = 10000 10533

MPI task timing breakdown:
Section |  min time  |  avg time  |  max time  |%varavg| %total
---------------------------------------------------------------
Pair    | 0.043701   | 0.42246    | 0.68657    |  27.8 | 16.23
Bond    | 0.0015667  | 0.3268     | 0.55142    |  33.6 | 12.55
Neigh   | 0          | 0          | 0          |   0.0 |  0.00
Comm    | 0.97535    | 1.3973     | 2.0438     |  25.5 | 53.67
Output  | 4.9015e-05 | 5.0177e-05 | 5.9672e-05 |   0.0 |  0.00
Modify  | 0.00079253 | 0.13055    | 0.20502    |  17.3 |  5.01
Other   |            | 0.3262     |            |       | 12.53

Nlocal:            3.4 ave           6 max           0 min
Histogram: 3 1 0 1 0 5 2 0 6 2
Nghost:        2591.15 ave        3035 max        2367 min
Histogram: 2 4 7 3 0 0 1 1 0 2
Neighs:         1440.6 ave        2995 max           0 min
Histogram: 3 1 0 4 4 1 1 1 4 1

Total # of neighbors = 28812
Ave neighs/atom = 423.70588
Ave special neighs/atom = 4.9411765
Neighbor list builds = 0
Dangerous builds = 0
variable        AtomMinStep equal $(step)
variable        AtomMinStep equal 20431
variable        temppe     equal $(pe)
variable        temppe     equal 52.836908804061927469
variable        min_E      equal abs(${prev_E}-${temppe})
variable        min_E      equal abs(59.8058358154819-${temppe})
variable        min_E      equal abs(59.8058358154819-52.8369088040619)
print           "${iter},${CellMinStep},${AtomMinStep},${AtomMinStep},$(pe),${min_E}" append p1_structure.min.csv screen no
if              "${min_E} < ${min_eval}" then "jump SELF break_min"
variable        prev_E     equal ${temppe}
variable        prev_E     equal 52.8369088040619
next            iter
jump            SELF loop_min
min_style       cg
fix             1 all box/relax tri 10000 vmax 0.05
minimize        1.0e-15 1.0e-15 10000 100000
WARNING: Using 'neigh_modify every 1 delay 0 check yes' setting during minimization (src/min.cpp:187)
----------------------------------------------------------
Using INTEL Package without Coprocessor.
Compiler: Intel LLVM C++ 202202.0 / Intel(R) oneAPI DPC++/C++ Compiler 2022.2.1 (2022.2.1.20221020)
SIMD compiler directives: Enabled
Precision: mixed
----------------------------------------------------------
Generated 6 of 6 mixed pair_coeff terms from arithmetic mixing rule
WARNING: Bond/angle/dihedral extent > half of periodic box length (src/domain.cpp:940)
Per MPI rank memory allocation (min/avg/max) = 15.63 | 16.03 | 16.48 Mbytes
   Step          Temp          E_pair         E_mol          TotEng         Press          Volume    
     20431   0.00045315102  29.502885      23.335108      52.838083      5463.6401      1047.4152    
     20654   0.00045315102  29.559589      24.233277      53.792957      9160.7446      965.40932    
WARNING: Bond/angle/dihedral extent > half of periodic box length (src/domain.cpp:940)
Loop time of 0.280155 on 40 procs for 223 steps with 68 atoms

95.6% CPU use with 20 MPI tasks x 2 OpenMP threads

Minimization stats:
  Stopping criterion = linesearch alpha is zero
  Energy initial, next-to-last, final = 
      52.8379926963338    41.833148078984    41.833148078984
  Force two-norm initial, final = 163.39675 24.633817
  Force max component initial, final = 159.16091 15.77935
  Final line search alpha, max atom move = 3.3740801e-11 5.3240791e-10
  Iterations, force evaluations = 223 617

MPI task timing breakdown:
Section |  min time  |  avg time  |  max time  |%varavg| %total
---------------------------------------------------------------
Pair    | 0.0021916  | 0.037311   | 0.056535   |   8.0 | 13.32
Bond    | 0.00016332 | 0.021149   | 0.037633   |   9.6 |  7.55
Neigh   | 0.028279   | 0.030465   | 0.032683   |   0.6 | 10.87
Comm    | 0.079229   | 0.11437    | 0.16972    |   8.8 | 40.83
Output  | 0          | 0          | 0          |   0.0 |  0.00
Modify  | 7.0355e-05 | 0.0073135  | 0.012486   |   4.4 |  2.61
Other   |            | 0.06954    |            |       | 24.82

Nlocal:            3.4 ave           7 max           0 min
Histogram: 1 2 3 0 5 4 0 2 2 1
Nghost:         2793.3 ave        3031 max        2630 min
Histogram: 2 4 2 2 4 2 1 1 0 2
Neighs:         1541.8 ave        2955 max           0 min
Histogram: 1 2 1 3 2 3 3 0 4 1

Total # of neighbors = 30836
Ave neighs/atom = 453.47059
Ave special neighs/atom = 4.9411765
Neighbor list builds = 137
Dangerous builds = 60
unfix           1
min_style       fire
variable        tempstp    equal $(step)
variable        tempstp    equal 20654
variable        CellMinStep equal ${tempstp}
variable        CellMinStep equal 20654
minimize        1.0e-15 1.0e-15 10000 100000
WARNING: Using 'neigh_modify every 1 delay 0 check yes' setting during minimization (src/min.cpp:187)
----------------------------------------------------------
Using INTEL Package without Coprocessor.
Compiler: Intel LLVM C++ 202202.0 / Intel(R) oneAPI DPC++/C++ Compiler 2022.2.1 (2022.2.1.20221020)
SIMD compiler directives: Enabled
Precision: mixed
----------------------------------------------------------
Generated 6 of 6 mixed pair_coeff terms from arithmetic mixing rule
  Parameters for fire: 
    dmax delaystep dtgrow dtshrink alpha0 alphashrink tmax tmin    integrator halfstepback 
     0.1        20    1.1      0.5   0.25        0.99   10 0.02 eulerimplicit          yes 
WARNING: Bond/angle/dihedral extent > half of periodic box length (src/domain.cpp:940)
Per MPI rank memory allocation (min/avg/max) = 14.55 | 14.96 | 15.42 Mbytes
   Step          Temp          E_pair         E_mol          TotEng         Press     
     20654   0              29.559589      24.233277      53.792867      9160.7403    
     30654   0.001309579    27.305371      23.49374       50.799372      4592.0504    
WARNING: Bond/angle/dihedral extent > half of periodic box length (src/domain.cpp:940)
Loop time of 2.57426 on 40 procs for 10000 steps with 68 atoms

95.4% CPU use with 20 MPI tasks x 2 OpenMP threads

Minimization stats:
  Stopping criterion = max iterations
  Energy initial, next-to-last, final = 
      53.7928667485814    50.799111207201   50.7991108957151
  Force two-norm initial, final = 9.182757 0.21192236
  Force max component initial, final = 2.3730887 0.031209167
  Final line search alpha, max atom move = 0 0
  Iterations, force evaluations = 10000 10532

MPI task timing breakdown:
Section |  min time  |  avg time  |  max time  |%varavg| %total
---------------------------------------------------------------
Pair    | 0.123      | 0.45687    | 0.62785    |  18.4 | 17.75
Bond    | 0.0034213  | 0.29828    | 0.54698    |  34.2 | 11.59
Neigh   | 0.0002403  | 0.0002701  | 0.00029217 |   0.0 |  0.01
Comm    | 0.98377    | 1.3882     | 2.0184     |  25.1 | 53.93
Output  | 5.0419e-05 | 5.1986e-05 | 6.1825e-05 |   0.0 |  0.00
Modify  | 0.034909   | 0.14766    | 0.19425    |   9.8 |  5.74
Other   |            | 0.2829     |            |       | 10.99

Nlocal:            3.4 ave           6 max           1 min
Histogram: 3 0 5 0 3 0 2 0 4 3
Nghost:        2762.75 ave        2951 max        2522 min
Histogram: 1 2 1 4 3 0 0 2 3 4
Neighs:        1537.25 ave        2902 max         366 min
Histogram: 3 2 3 1 2 2 1 2 2 2

Total # of neighbors = 30745
Ave neighs/atom = 452.13235
Ave special neighs/atom = 4.9411765
Neighbor list builds = 1
Dangerous builds = 0
variable        AtomMinStep equal $(step)
variable        AtomMinStep equal 30654
variable        temppe     equal $(pe)
variable        temppe     equal 50.799110895715124059
variable        min_E      equal abs(${prev_E}-${temppe})
variable        min_E      equal abs(52.8369088040619-${temppe})
variable        min_E      equal abs(52.8369088040619-50.7991108957151)
print           "${iter},${CellMinStep},${AtomMinStep},${AtomMinStep},$(pe),${min_E}" append p1_structure.min.csv screen no
if              "${min_E} < ${min_eval}" then "jump SELF break_min"
variable        prev_E     equal ${temppe}
variable        prev_E     equal 50.7991108957151
next            iter
jump            SELF loop_min
min_style       cg
fix             1 all box/relax tri 10000 vmax 0.05
minimize        1.0e-15 1.0e-15 10000 100000
WARNING: Using 'neigh_modify every 1 delay 0 check yes' setting during minimization (src/min.cpp:187)
----------------------------------------------------------
Using INTEL Package without Coprocessor.
Compiler: Intel LLVM C++ 202202.0 / Intel(R) oneAPI DPC++/C++ Compiler 2022.2.1 (2022.2.1.20221020)
SIMD compiler directives: Enabled
Precision: mixed
----------------------------------------------------------
Generated 6 of 6 mixed pair_coeff terms from arithmetic mixing rule
WARNING: Bond/angle/dihedral extent > half of periodic box length (src/domain.cpp:940)
Per MPI rank memory allocation (min/avg/max) = 15.82 | 16.11 | 16.54 Mbytes
   Step          Temp          E_pair         E_mol          TotEng         Press          Volume    
     30654   0.001309579    27.305371      23.499076      50.804708      4592.0504      965.40932    
     30697   0.001309579    30.96392       23.812878      54.77706       7582.4453      930.68521    
WARNING: Bond/angle/dihedral extent > half of periodic box length (src/domain.cpp:940)
Loop time of 0.0894125 on 40 procs for 43 steps with 68 atoms

100.5% CPU use with 20 MPI tasks x 2 OpenMP threads

Minimization stats:
  Stopping criterion = linesearch alpha is zero
  Energy initial, next-to-last, final = 
      50.8044466158911   47.0181254296719   49.7126437825816
  Force two-norm initial, final = 174.88951 159.13916
  Force max component initial, final = 169.81619 81.782579
  Final line search alpha, max atom move = 2.7947538e-11 2.2856217e-09
  Iterations, force evaluations = 43 201

MPI task timing breakdown:
Section |  min time  |  avg time  |  max time  |%varavg| %total
---------------------------------------------------------------
Pair    | 0.0065457  | 0.013259   | 0.018918   |   2.9 | 14.83
Bond    | 6.1523e-05 | 0.0061441  | 0.012118   |   5.3 |  6.87
Neigh   | 0.0074903  | 0.0079257  | 0.00837    |   0.3 |  8.86
Comm    | 0.024943   | 0.037488   | 0.052223   |   4.0 | 41.93
Output  | 0          | 0          | 0          |   0.0 |  0.00
Modify  | 0.00059007 | 0.0025745  | 0.0044587  |   2.2 |  2.88
Other   |            | 0.02202    |            |       | 24.63

Nlocal:            3.4 ave           7 max           1 min
Histogram: 3 6 0 2 0 3 2 0 3 1
Nghost:        2842.85 ave        2956 max        2661 min
Histogram: 1 1 2 2 1 2 1 4 2 4
Neighs:           1588 ave        3455 max         388 min
Histogram: 3 3 3 2 3 1 1 1 2 1

Total # of neighbors = 31760
Ave neighs/atom = 467.05882
Ave special neighs/atom = 4.9411765
Neighbor list builds = 33
Dangerous builds = 16
unfix           1
min_style       fire
variable        tempstp    equal $(step)
variable        tempstp    equal 30697
variable        CellMinStep equal ${tempstp}
variable        CellMinStep equal 30697
minimize        1.0e-15 1.0e-15 10000 100000
WARNING: Using 'neigh_modify every 1 delay 0 check yes' setting during minimization (src/min.cpp:187)
----------------------------------------------------------
Using INTEL Package without Coprocessor.
Compiler: Intel LLVM C++ 202202.0 / Intel(R) oneAPI DPC++/C++ Compiler 2022.2.1 (2022.2.1.20221020)
SIMD compiler directives: Enabled
Precision: mixed
----------------------------------------------------------
Generated 6 of 6 mixed pair_coeff terms from arithmetic mixing rule
  Parameters for fire: 
    dmax delaystep dtgrow dtshrink alpha0 alphashrink tmax tmin    integrator halfstepback 
     0.1        20    1.1      0.5   0.25        0.99   10 0.02 eulerimplicit          yes 
WARNING: Bond/angle/dihedral extent > half of periodic box length (src/domain.cpp:940)
Per MPI rank memory allocation (min/avg/max) = 14.71 | 15.03 | 15.42 Mbytes
   Step          Temp          E_pair         E_mol          TotEng         Press     
     30697   0              30.96392       23.812878      54.776798      7582.4325    
     40697   7.7024887e-05  27.26776       23.343851      50.611626      6453.8225    
WARNING: Bond/angle/dihedral extent > half of periodic box length (src/domain.cpp:940)
Loop time of 2.67414 on 40 procs for 10000 steps with 68 atoms

97.2% CPU use with 20 MPI tasks x 2 OpenMP threads

Minimization stats:
  Stopping criterion = max iterations
  Energy initial, next-to-last, final = 
      54.7767983663102   50.6116239140365    50.611611055328
  Force two-norm initial, final = 131.91546 0.17218546
  Force max component initial, final = 76.097014 0.03361628
  Final line search alpha, max atom move = 0 0
  Iterations, force evaluations = 10000 10530

MPI task timing breakdown:
Section |  min time  |  avg time  |  max time  |%varavg| %total
---------------------------------------------------------------
Pair    | 0.24535    | 0.4669     | 0.67879    |  17.4 | 17.46
Bond    | 0.0026576  | 0.27301    | 0.52714    |  35.6 | 10.21
Neigh   | 0          | 0          | 0          |   0.0 |  0.00
Comm    | 0.99718    | 1.4814     | 1.9753     |  23.5 | 55.40
Output  | 4.1241e-05 | 4.2188e-05 | 4.6691e-05 |   0.0 |  0.00
Modify  | 0.11077    | 0.1586     | 0.21484    |   9.4 |  5.93
Other   |            | 0.2942     |            |       | 11.00

Nlocal:            3.4 ave           7 max           1 min
Histogram: 3 6 0 2 0 3 2 0 3 1
Nghost:        2842.85 ave        2956 max        2661 min
Histogram: 1 1 2 2 1 2 1 4 2 4
Neighs:        1588.75 ave        3459 max         388 min
Histogram: 3 3 3 2 3 1 1 1 2 1

Total # of neighbors = 31775
Ave neighs/atom = 467.27941
Ave special neighs/atom = 4.9411765
Neighbor list builds = 0
Dangerous builds = 0
variable        AtomMinStep equal $(step)
variable        AtomMinStep equal 40697
variable        temppe     equal $(pe)
variable        temppe     equal 50.611611055327969666
variable        min_E      equal abs(${prev_E}-${temppe})
variable        min_E      equal abs(50.7991108957151-${temppe})
variable        min_E      equal abs(50.7991108957151-50.611611055328)
print           "${iter},${CellMinStep},${AtomMinStep},${AtomMinStep},$(pe),${min_E}" append p1_structure.min.csv screen no
if              "${min_E} < ${min_eval}" then "jump SELF break_min"
variable        prev_E     equal ${temppe}
variable        prev_E     equal 50.611611055328
next            iter
jump            SELF loop_min
min_style       cg
fix             1 all box/relax tri 10000 vmax 0.05
minimize        1.0e-15 1.0e-15 10000 100000
WARNING: Using 'neigh_modify every 1 delay 0 check yes' setting during minimization (src/min.cpp:187)
----------------------------------------------------------
Using INTEL Package without Coprocessor.
Compiler: Intel LLVM C++ 202202.0 / Intel(R) oneAPI DPC++/C++ Compiler 2022.2.1 (2022.2.1.20221020)
SIMD compiler directives: Enabled
Precision: mixed
----------------------------------------------------------
Generated 6 of 6 mixed pair_coeff terms from arithmetic mixing rule
WARNING: Bond/angle/dihedral extent > half of periodic box length (src/domain.cpp:940)
Per MPI rank memory allocation (min/avg/max) = 15.84 | 16.22 | 16.55 Mbytes
   Step          Temp          E_pair         E_mol          TotEng         Press          Volume    
     40697   7.7024887e-05  27.26776       23.764313      51.032088      6453.8225      930.68521    
     40882   7.7024887e-05  27.938578      25.088072      53.026666      11611.202      903.93126    
WARNING: Bond/angle/dihedral extent > half of periodic box length (src/domain.cpp:940)
Loop time of 0.20661 on 40 procs for 185 steps with 68 atoms

98.4% CPU use with 20 MPI tasks x 2 OpenMP threads

Minimization stats:
  Stopping criterion = linesearch alpha is zero
  Energy initial, next-to-last, final = 
      51.0320730051802   47.9877976149539   49.1248604774183
  Force two-norm initial, final = 136.1519 88.7694
  Force max component initial, final = 136.01428 45.61194
  Final line search alpha, max atom move = 1.1730332e-10 5.3504319e-09
  Iterations, force evaluations = 185 452

MPI task timing breakdown:
Section |  min time  |  avg time  |  max time  |%varavg| %total
---------------------------------------------------------------
Pair    | 0.0020148  | 0.029035   | 0.043618   |   5.7 | 14.05
Bond    | 0.00010975 | 0.014132   | 0.027139   |   7.9 |  6.84
Neigh   | 0.017842   | 0.018723   | 0.019715   |   0.4 |  9.06
Comm    | 0.059183   | 0.08875    | 0.13493    |   6.6 | 42.96
Output  | 0          | 0          | 0          |   0.0 |  0.00
Modify  | 6.5203e-05 | 0.0059482  | 0.010262   |   3.4 |  2.88
Other   |            | 0.05002    |            |       | 24.21

Nlocal:            3.4 ave           7 max           0 min
Histogram: 1 2 5 0 3 2 0 4 2 1
Nghost:        2956.95 ave        3068 max        2814 min
Histogram: 2 0 0 2 6 2 0 3 3 2
Neighs:        1632.45 ave        3487 max           0 min
Histogram: 1 2 5 2 1 2 3 1 2 1

Total # of neighbors = 32649
Ave neighs/atom = 480.13235
Ave special neighs/atom = 4.9411765
Neighbor list builds = 80
Dangerous builds = 36
unfix           1
min_style       fire
variable        tempstp    equal $(step)
variable        tempstp    equal 40882
variable        CellMinStep equal ${tempstp}
variable        CellMinStep equal 40882
minimize        1.0e-15 1.0e-15 10000 100000
WARNING: Using 'neigh_modify every 1 delay 0 check yes' setting during minimization (src/min.cpp:187)
----------------------------------------------------------
Using INTEL Package without Coprocessor.
Compiler: Intel LLVM C++ 202202.0 / Intel(R) oneAPI DPC++/C++ Compiler 2022.2.1 (2022.2.1.20221020)
SIMD compiler directives: Enabled
Precision: mixed
----------------------------------------------------------
Generated 6 of 6 mixed pair_coeff terms from arithmetic mixing rule
  Parameters for fire: 
    dmax delaystep dtgrow dtshrink alpha0 alphashrink tmax tmin    integrator halfstepback 
     0.1        20    1.1      0.5   0.25        0.99   10 0.02 eulerimplicit          yes 
WARNING: Bond/angle/dihedral extent > half of periodic box length (src/domain.cpp:940)
Per MPI rank memory allocation (min/avg/max) = 14.71 | 15.09 | 15.42 Mbytes
   Step          Temp          E_pair         E_mol          TotEng         Press     
     40882   0              27.938578      25.088072      53.026651      11611.201    
     50882   5.2857804e-05  26.861681      24.075095      50.936787      9365.2367    
WARNING: Bond/angle/dihedral extent > half of periodic box length (src/domain.cpp:940)
Loop time of 2.7337 on 40 procs for 10000 steps with 68 atoms

98.3% CPU use with 20 MPI tasks x 2 OpenMP threads

Minimization stats:
  Stopping criterion = max iterations
  Energy initial, next-to-last, final = 
      53.0266505203116   50.9368016857565   50.9367768933683
  Force two-norm initial, final = 73.806405 0.057179302
  Force max component initial, final = 45.61194 0.01749145
  Final line search alpha, max atom move = 0 0
  Iterations, force evaluations = 10000 10537

MPI task timing breakdown:
Section |  min time  |  avg time  |  max time  |%varavg| %total
---------------------------------------------------------------
Pair    | 0.054286   | 0.44996    | 0.69757    |  22.0 | 16.46
Bond    | 0.0017413  | 0.28511    | 0.53014    |  33.0 | 10.43
Neigh   | 0          | 0          | 0          |   0.0 |  0.00
Comm    | 1.042      | 1.5628     | 2.3153     |  25.0 | 57.17
Output  | 6.5991e-05 | 6.7428e-05 | 7.5171e-05 |   0.0 |  0.00
Modify  | 0.0010111  | 0.1506     | 0.22328    |  12.5 |  5.51
Other   |            | 0.2851     |            |       | 10.43

Nlocal:            3.4 ave           7 max           0 min
Histogram: 1 2 5 0 3 2 0 4 2 1
Nghost:        2956.95 ave        3068 max        2814 min
Histogram: 2 0 0 2 6 2 0 3 3 2
Neighs:         1632.2 ave        3486 max           0 min
Histogram: 1 2 5 2 1 2 3 1 2 1

Total # of neighbors = 32644
Ave neighs/atom = 480.05882
Ave special neighs/atom = 4.9411765
Neighbor list builds = 0
Dangerous builds = 0
variable        AtomMinStep equal $(step)
variable        AtomMinStep equal 50882
variable        temppe     equal $(pe)
variable        temppe     equal 50.936776893368296726
variable        min_E      equal abs(${prev_E}-${temppe})
variable        min_E      equal abs(50.611611055328-${temppe})
variable        min_E      equal abs(50.611611055328-50.9367768933683)
print           "${iter},${CellMinStep},${AtomMinStep},${AtomMinStep},$(pe),${min_E}" append p1_structure.min.csv screen no
if              "${min_E} < ${min_eval}" then "jump SELF break_min"
variable        prev_E     equal ${temppe}
variable        prev_E     equal 50.9367768933683
next            iter
jump            SELF loop_min
min_style       cg
fix             1 all box/relax tri 10000 vmax 0.05
minimize        1.0e-15 1.0e-15 10000 100000
WARNING: Using 'neigh_modify every 1 delay 0 check yes' setting during minimization (src/min.cpp:187)
----------------------------------------------------------
Using INTEL Package without Coprocessor.
Compiler: Intel LLVM C++ 202202.0 / Intel(R) oneAPI DPC++/C++ Compiler 2022.2.1 (2022.2.1.20221020)
SIMD compiler directives: Enabled
Precision: mixed
----------------------------------------------------------
Generated 6 of 6 mixed pair_coeff terms from arithmetic mixing rule
WARNING: Bond/angle/dihedral extent > half of periodic box length (src/domain.cpp:940)
Per MPI rank memory allocation (min/avg/max) = 15.84 | 16.22 | 16.55 Mbytes
   Step          Temp          E_pair         E_mol          TotEng         Press          Volume    
     50882   5.2857804e-05  26.86168       24.075095      50.936786      9365.2363      903.93126    
     50888   5.2857804e-05  27.127982      23.865422      50.993415      10077.538      903.5193     
WARNING: Bond/angle/dihedral extent > half of periodic box length (src/domain.cpp:940)
Loop time of 0.039647 on 40 procs for 6 steps with 68 atoms

97.1% CPU use with 20 MPI tasks x 2 OpenMP threads

Minimization stats:
  Stopping criterion = linesearch alpha is zero
  Energy initial, next-to-last, final = 
      50.9367755447114   50.9333240347188   50.9333240347188
  Force two-norm initial, final = 16.447429 4.3395874
  Force max component initial, final = 13.013551 3.2266661
  Final line search alpha, max atom move = 6.2544852e-10 2.0181136e-09
  Iterations, force evaluations = 6 101

MPI task timing breakdown:
Section |  min time  |  avg time  |  max time  |%varavg| %total
---------------------------------------------------------------
Pair    | 0.00051109 | 0.0067713  | 0.009536   |   2.5 | 17.08
Bond    | 2.3735e-05 | 0.003569   | 0.0059318  |   3.3 |  9.00
Neigh   | 0.0013136  | 0.0014007  | 0.0014985  |   0.2 |  3.53
Comm    | 0.010557   | 0.016178   | 0.027035   |   3.3 | 40.81
Output  | 0          | 0          | 0          |   0.0 |  0.00
Modify  | 9.918e-06  | 0.0014301  | 0.0021902  |   1.5 |  3.61
Other   |            | 0.0103     |            |       | 25.97

Nlocal:            3.4 ave           6 max           0 min
Histogram: 1 2 0 4 0 5 1 0 3 4
Nghost:        2927.35 ave        3047 max        2801 min
Histogram: 2 1 0 3 5 1 1 5 1 1
Neighs:         1633.8 ave        3046 max           0 min
Histogram: 1 2 1 3 5 0 1 2 1 4

Total # of neighbors = 32676
Ave neighs/atom = 480.52941
Ave special neighs/atom = 4.9411765
Neighbor list builds = 6
Dangerous builds = 3
unfix           1
min_style       fire
variable        tempstp    equal $(step)
variable        tempstp    equal 50888
variable        CellMinStep equal ${tempstp}
variable        CellMinStep equal 50888
minimize        1.0e-15 1.0e-15 10000 100000
WARNING: Using 'neigh_modify every 1 delay 0 check yes' setting during minimization (src/min.cpp:187)
----------------------------------------------------------
Using INTEL Package without Coprocessor.
Compiler: Intel LLVM C++ 202202.0 / Intel(R) oneAPI DPC++/C++ Compiler 2022.2.1 (2022.2.1.20221020)
SIMD compiler directives: Enabled
Precision: mixed
----------------------------------------------------------
Generated 6 of 6 mixed pair_coeff terms from arithmetic mixing rule
  Parameters for fire: 
    dmax delaystep dtgrow dtshrink alpha0 alphashrink tmax tmin    integrator halfstepback 
     0.1        20    1.1      0.5   0.25        0.99   10 0.02 eulerimplicit          yes 
WARNING: Bond/angle/dihedral extent > half of periodic box length (src/domain.cpp:940)
Per MPI rank memory allocation (min/avg/max) = 14.72 | 15.1 | 15.43 Mbytes
   Step          Temp          E_pair         E_mol          TotEng         Press     
     50888   0              27.127982      23.865422      50.993404      10077.537    
     60888   3.0788255e-06  26.77256       24.099432      50.871993      9430.5733    
WARNING: Bond/angle/dihedral extent > half of periodic box length (src/domain.cpp:940)
Loop time of 2.64513 on 40 procs for 10000 steps with 68 atoms

98.1% CPU use with 20 MPI tasks x 2 OpenMP threads

Minimization stats:
  Stopping criterion = max iterations
  Energy initial, next-to-last, final = 
      50.9934039681515   50.8719651245018   50.8719921503246
  Force two-norm initial, final = 1.8227993 0.037803827
  Force max component initial, final = 0.42252769 0.0088798028
  Final line search alpha, max atom move = 0 0
  Iterations, force evaluations = 10000 10543

MPI task timing breakdown:
Section |  min time  |  avg time  |  max time  |%varavg| %total
---------------------------------------------------------------
Pair    | 0.054641   | 0.453      | 0.69562    |  22.3 | 17.13
Bond    | 0.0018054  | 0.30908    | 0.52546    |  31.3 | 11.68
Neigh   | 0          | 0          | 0          |   0.0 |  0.00
Comm    | 0.97394    | 1.4552     | 2.2484     |  26.9 | 55.02
Output  | 4.4229e-05 | 4.5519e-05 | 5.2545e-05 |   0.0 |  0.00
Modify  | 0.0011181  | 0.16067    | 0.22262    |  13.1 |  6.07
Other   |            | 0.2671     |            |       | 10.10

Nlocal:            3.4 ave           6 max           0 min
Histogram: 1 2 0 4 0 5 1 0 3 4
Nghost:        2927.35 ave        3047 max        2801 min
Histogram: 2 1 0 3 5 1 1 5 1 1
Neighs:         1633.8 ave        3046 max           0 min
Histogram: 1 2 1 3 5 0 1 2 1 4

Total # of neighbors = 32676
Ave neighs/atom = 480.52941
Ave special neighs/atom = 4.9411765
Neighbor list builds = 0
Dangerous builds = 0
variable        AtomMinStep equal $(step)
variable        AtomMinStep equal 60888
variable        temppe     equal $(pe)
variable        temppe     equal 50.87199215032457289
variable        min_E      equal abs(${prev_E}-${temppe})
variable        min_E      equal abs(50.9367768933683-${temppe})
variable        min_E      equal abs(50.9367768933683-50.8719921503246)
print           "${iter},${CellMinStep},${AtomMinStep},${AtomMinStep},$(pe),${min_E}" append p1_structure.min.csv screen no
if              "${min_E} < ${min_eval}" then "jump SELF break_min"
variable        prev_E     equal ${temppe}
variable        prev_E     equal 50.8719921503246
next            iter
jump            SELF loop_min
min_style       cg
fix             1 all box/relax tri 10000 vmax 0.05
minimize        1.0e-15 1.0e-15 10000 100000
WARNING: Using 'neigh_modify every 1 delay 0 check yes' setting during minimization (src/min.cpp:187)
----------------------------------------------------------
Using INTEL Package without Coprocessor.
Compiler: Intel LLVM C++ 202202.0 / Intel(R) oneAPI DPC++/C++ Compiler 2022.2.1 (2022.2.1.20221020)
SIMD compiler directives: Enabled
Precision: mixed
----------------------------------------------------------
Generated 6 of 6 mixed pair_coeff terms from arithmetic mixing rule
WARNING: Bond/angle/dihedral extent > half of periodic box length (src/domain.cpp:940)
Per MPI rank memory allocation (min/avg/max) = 15.85 | 16.23 | 16.55 Mbytes
   Step          Temp          E_pair         E_mol          TotEng         Press          Volume    
     60888   3.0788255e-06  26.77256       24.099432      50.871993      9430.5733      903.5193     
     60892   3.0788255e-06  26.977829      23.944902      50.922731      9967.5284      903.15268    
WARNING: Bond/angle/dihedral extent > half of periodic box length (src/domain.cpp:940)
Loop time of 0.0244293 on 40 procs for 4 steps with 68 atoms

104.3% CPU use with 20 MPI tasks x 2 OpenMP threads

Minimization stats:
  Stopping criterion = linesearch alpha is zero
  Energy initial, next-to-last, final = 
      50.8719921503246   50.8692631936246   50.8692631936247
  Force two-norm initial, final = 14.310483 3.7619093
  Force max component initial, final = 10.55906 2.2552622
  Final line search alpha, max atom move = 5.5864673e-10 1.2598949e-09
  Iterations, force evaluations = 4 61

MPI task timing breakdown:
Section |  min time  |  avg time  |  max time  |%varavg| %total
---------------------------------------------------------------
Pair    | 0.00031559 | 0.0041018  | 0.0056936  |   2.0 | 16.79
Bond    | 1.5114e-05 | 0.002069   | 0.00352    |   2.5 |  8.47
Neigh   | 0.00085904 | 0.00090991 | 0.00095781 |   0.0 |  3.72
Comm    | 0.0067038  | 0.010052   | 0.0166     |   2.6 | 41.15
Output  | 0          | 0          | 0          |   0.0 |  0.00
Modify  | 6.718e-06  | 0.00091688 | 0.0013267  |   0.0 |  3.75
Other   |            | 0.00638    |            |       | 26.12

Nlocal:            3.4 ave           6 max           0 min
Histogram: 1 2 0 4 0 5 1 0 3 4
Nghost:        2930.85 ave        3054 max        2801 min
Histogram: 2 1 0 5 3 1 1 4 2 1
Neighs:         1634.3 ave        3032 max           0 min
Histogram: 1 2 1 3 5 0 1 1 2 4

Total # of neighbors = 32686
Ave neighs/atom = 480.67647
Ave special neighs/atom = 4.9411765
Neighbor list builds = 4
Dangerous builds = 2
unfix           1
min_style       fire
variable        tempstp    equal $(step)
variable        tempstp    equal 60892
variable        CellMinStep equal ${tempstp}
variable        CellMinStep equal 60892
minimize        1.0e-15 1.0e-15 10000 100000
WARNING: Using 'neigh_modify every 1 delay 0 check yes' setting during minimization (src/min.cpp:187)
----------------------------------------------------------
Using INTEL Package without Coprocessor.
Compiler: Intel LLVM C++ 202202.0 / Intel(R) oneAPI DPC++/C++ Compiler 2022.2.1 (2022.2.1.20221020)
SIMD compiler directives: Enabled
Precision: mixed
----------------------------------------------------------
Generated 6 of 6 mixed pair_coeff terms from arithmetic mixing rule
  Parameters for fire: 
    dmax delaystep dtgrow dtshrink alpha0 alphashrink tmax tmin    integrator halfstepback 
     0.1        20    1.1      0.5   0.25        0.99   10 0.02 eulerimplicit          yes 
WARNING: Bond/angle/dihedral extent > half of periodic box length (src/domain.cpp:940)
Per MPI rank memory allocation (min/avg/max) = 14.72 | 15.11 | 15.43 Mbytes
   Step          Temp          E_pair         E_mol          TotEng         Press     
     60892   0              26.977829      23.944902      50.922731      9967.5284    
     70892   1.3070089e-05  26.754195      24.092431      50.846628      9488.3261    
WARNING: Bond/angle/dihedral extent > half of periodic box length (src/domain.cpp:940)
Loop time of 2.71211 on 40 procs for 10000 steps with 68 atoms

97.9% CPU use with 20 MPI tasks x 2 OpenMP threads

Minimization stats:
  Stopping criterion = max iterations
  Energy initial, next-to-last, final = 
       50.922730502591   50.8465931325502    50.846625713024
  Force two-norm initial, final = 1.42402 0.027821982
  Force max component initial, final = 0.30598209 0.0076831331
  Final line search alpha, max atom move = 0 0
  Iterations, force evaluations = 10000 10542

MPI task timing breakdown:
Section |  min time  |  avg time  |  max time  |%varavg| %total
---------------------------------------------------------------
Pair    | 0.054894   | 0.4576     | 0.7108     |  22.9 | 16.87
Bond    | 0.0017601  | 0.30816    | 0.53047    |  30.9 | 11.36
Neigh   | 0          | 0          | 0          |   0.0 |  0.00
Comm    | 1.0133     | 1.5044     | 2.3071     |  26.6 | 55.47
Output  | 2.8887e-05 | 3.3039e-05 | 3.96e-05   |   0.0 |  0.00
Modify  | 0.0010648  | 0.15986    | 0.22873    |  13.0 |  5.89
Other   |            | 0.2821     |            |       | 10.40

Nlocal:            3.4 ave           6 max           0 min
Histogram: 1 2 0 4 0 5 1 0 3 4
Nghost:        2930.85 ave        3054 max        2801 min
Histogram: 2 1 0 5 3 1 1 4 2 1
Neighs:         1634.3 ave        3032 max           0 min
Histogram: 1 2 1 3 5 0 1 1 2 4

Total # of neighbors = 32686
Ave neighs/atom = 480.67647
Ave special neighs/atom = 4.9411765
Neighbor list builds = 0
Dangerous builds = 0
variable        AtomMinStep equal $(step)
variable        AtomMinStep equal 70892
variable        temppe     equal $(pe)
variable        temppe     equal 50.846625713024003801
variable        min_E      equal abs(${prev_E}-${temppe})
variable        min_E      equal abs(50.8719921503246-${temppe})
variable        min_E      equal abs(50.8719921503246-50.846625713024)
print           "${iter},${CellMinStep},${AtomMinStep},${AtomMinStep},$(pe),${min_E}" append p1_structure.min.csv screen no
if              "${min_E} < ${min_eval}" then "jump SELF break_min"
variable        prev_E     equal ${temppe}
variable        prev_E     equal 50.846625713024
next            iter
jump            SELF loop_min
min_style       cg
fix             1 all box/relax tri 10000 vmax 0.05
minimize        1.0e-15 1.0e-15 10000 100000
WARNING: Using 'neigh_modify every 1 delay 0 check yes' setting during minimization (src/min.cpp:187)
----------------------------------------------------------
Using INTEL Package without Coprocessor.
Compiler: Intel LLVM C++ 202202.0 / Intel(R) oneAPI DPC++/C++ Compiler 2022.2.1 (2022.2.1.20221020)
SIMD compiler directives: Enabled
Precision: mixed
----------------------------------------------------------
Generated 6 of 6 mixed pair_coeff terms from arithmetic mixing rule
WARNING: Bond/angle/dihedral extent > half of periodic box length (src/domain.cpp:940)
Per MPI rank memory allocation (min/avg/max) = 15.85 | 16.23 | 16.55 Mbytes
   Step          Temp          E_pair         E_mol          TotEng         Press          Volume    
     70892   1.3070089e-05  26.754195      24.092431      50.846628      9488.3261      903.15268    
     70900   1.3070089e-05  27.015849      23.895869      50.91172       10157.803      902.68596    
WARNING: Bond/angle/dihedral extent > half of periodic box length (src/domain.cpp:940)
Loop time of 0.0857787 on 40 procs for 8 steps with 68 atoms

97.8% CPU use with 20 MPI tasks x 2 OpenMP threads

Minimization stats:
  Stopping criterion = linesearch alpha is zero
  Energy initial, next-to-last, final = 
       50.846625713024   50.8436511042617   50.8436511042617
  Force two-norm initial, final = 12.931115 5.5401189
  Force max component initial, final = 9.6716001 4.4387658
  Final line search alpha, max atom move = 3.3570506e-10 1.4901161e-09
  Iterations, force evaluations = 8 217

MPI task timing breakdown:
Section |  min time  |  avg time  |  max time  |%varavg| %total
---------------------------------------------------------------
Pair    | 0.0011175  | 0.014405   | 0.020444   |   3.8 | 16.79
Bond    | 4.8771e-05 | 0.0076787  | 0.012853   |   4.9 |  8.95
Neigh   | 0.0028928  | 0.0030118  | 0.0031448  |   0.1 |  3.51
Comm    | 0.023417   | 0.035353   | 0.058497   |   4.9 | 41.21
Output  | 0          | 0          | 0          |   0.0 |  0.00
Modify  | 2.1812e-05 | 0.0030109  | 0.0048917  |   2.2 |  3.51
Other   |            | 0.02232    |            |       | 26.02

Nlocal:            3.4 ave           6 max           0 min
Histogram: 1 2 0 4 0 5 1 0 3 4
Nghost:         2937.5 ave        3054 max        2815 min
Histogram: 2 1 0 3 5 2 0 5 1 1
Neighs:         1635.4 ave        3033 max           0 min
Histogram: 1 2 1 3 5 0 1 1 2 4

Total # of neighbors = 32708
Ave neighs/atom = 481
Ave special neighs/atom = 4.9411765
Neighbor list builds = 12
Dangerous builds = 6
unfix           1
min_style       fire
variable        tempstp    equal $(step)
variable        tempstp    equal 70900
variable        CellMinStep equal ${tempstp}
variable        CellMinStep equal 70900
minimize        1.0e-15 1.0e-15 10000 100000
WARNING: Using 'neigh_modify every 1 delay 0 check yes' setting during minimization (src/min.cpp:187)
----------------------------------------------------------
Using INTEL Package without Coprocessor.
Compiler: Intel LLVM C++ 202202.0 / Intel(R) oneAPI DPC++/C++ Compiler 2022.2.1 (2022.2.1.20221020)
SIMD compiler directives: Enabled
Precision: mixed
----------------------------------------------------------
Generated 6 of 6 mixed pair_coeff terms from arithmetic mixing rule
  Parameters for fire: 
    dmax delaystep dtgrow dtshrink alpha0 alphashrink tmax tmin    integrator halfstepback 
     0.1        20    1.1      0.5   0.25        0.99   10 0.02 eulerimplicit          yes 
WARNING: Bond/angle/dihedral extent > half of periodic box length (src/domain.cpp:940)
Per MPI rank memory allocation (min/avg/max) = 14.72 | 15.11 | 15.43 Mbytes
   Step          Temp          E_pair         E_mol          TotEng         Press     
     70900   0              27.015849      23.895869      50.911718      10157.803    
     80900   1.0466821e-06  26.767898      24.087501      50.855399      9561.4781    
WARNING: Bond/angle/dihedral extent > half of periodic box length (src/domain.cpp:940)
Loop time of 2.7563 on 40 procs for 10000 steps with 68 atoms

97.2% CPU use with 20 MPI tasks x 2 OpenMP threads

Minimization stats:
  Stopping criterion = max iterations
  Energy initial, next-to-last, final = 
      50.9117177016355   50.8553743233036   50.8553988324034
  Force two-norm initial, final = 1.6137122 0.026059104
  Force max component initial, final = 0.33916139 0.0077131104
  Final line search alpha, max atom move = 0 0
  Iterations, force evaluations = 10000 10538

MPI task timing breakdown:
Section |  min time  |  avg time  |  max time  |%varavg| %total
---------------------------------------------------------------
Pair    | 0.05393    | 0.46279    | 0.70259    |  22.9 | 16.79
Bond    | 0.0019285  | 0.30934    | 0.52827    |  31.4 | 11.22
Neigh   | 0          | 0          | 0          |   0.0 |  0.00
Comm    | 1.0786     | 1.5446     | 2.3219     |  26.5 | 56.04
Output  | 4.3454e-05 | 4.5111e-05 | 5.0676e-05 |   0.0 |  0.00
Modify  | 0.0010814  | 0.15675    | 0.23024    |  13.6 |  5.69
Other   |            | 0.2828     |            |       | 10.26

Nlocal:            3.4 ave           6 max           0 min
Histogram: 1 2 0 4 0 5 1 0 3 4
Nghost:         2937.5 ave        3054 max        2815 min
Histogram: 2 1 0 3 5 2 0 5 1 1
Neighs:        1635.55 ave        3033 max           0 min
Histogram: 1 2 1 3 5 0 1 1 2 4

Total # of neighbors = 32711
Ave neighs/atom = 481.04412
Ave special neighs/atom = 4.9411765
Neighbor list builds = 0
Dangerous builds = 0
variable        AtomMinStep equal $(step)
variable        AtomMinStep equal 80900
variable        temppe     equal $(pe)
variable        temppe     equal 50.855398832403380993
variable        min_E      equal abs(${prev_E}-${temppe})
variable        min_E      equal abs(50.846625713024-${temppe})
variable        min_E      equal abs(50.846625713024-50.8553988324034)
print           "${iter},${CellMinStep},${AtomMinStep},${AtomMinStep},$(pe),${min_E}" append p1_structure.min.csv screen no
if              "${min_E} < ${min_eval}" then "jump SELF break_min"
variable        prev_E     equal ${temppe}
variable        prev_E     equal 50.8553988324034
next            iter
jump            SELF loop_min
min_style       cg
fix             1 all box/relax tri 10000 vmax 0.05
minimize        1.0e-15 1.0e-15 10000 100000
WARNING: Using 'neigh_modify every 1 delay 0 check yes' setting during minimization (src/min.cpp:187)
----------------------------------------------------------
Using INTEL Package without Coprocessor.
Compiler: Intel LLVM C++ 202202.0 / Intel(R) oneAPI DPC++/C++ Compiler 2022.2.1 (2022.2.1.20221020)
SIMD compiler directives: Enabled
Precision: mixed
----------------------------------------------------------
Generated 6 of 6 mixed pair_coeff terms from arithmetic mixing rule
WARNING: Bond/angle/dihedral extent > half of periodic box length (src/domain.cpp:940)
Per MPI rank memory allocation (min/avg/max) = 15.85 | 16.23 | 16.55 Mbytes
   Step          Temp          E_pair         E_mol          TotEng         Press          Volume    
     80900   1.0466821e-06  26.767898      24.087501      50.855399      9561.4781      902.68596    
     80939   1.0466821e-06  27.445273      24.218501      51.663774      8952.5477      900.36111    
WARNING: Bond/angle/dihedral extent > half of periodic box length (src/domain.cpp:940)
Loop time of 0.082714 on 40 procs for 39 steps with 68 atoms

97.1% CPU use with 20 MPI tasks x 2 OpenMP threads

Minimization stats:
  Stopping criterion = linesearch alpha is zero
  Energy initial, next-to-last, final = 
      50.8553988324035   50.7108222645854   51.3247181678126
  Force two-norm initial, final = 11.351571 51.952233
  Force max component initial, final = 8.6777299 30.888139
  Final line search alpha, max atom move = 1.1325957e-10 3.4983773e-09
  Iterations, force evaluations = 39 196

MPI task timing breakdown:
Section |  min time  |  avg time  |  max time  |%varavg| %total
---------------------------------------------------------------
Pair    | 0.00096454 | 0.013048   | 0.019525   |   3.6 | 15.77
Bond    | 4.4735e-05 | 0.0068772  | 0.011912   |   4.6 |  8.31
Neigh   | 0.0034573  | 0.0037217  | 0.0039707  |   0.3 |  4.50
Comm    | 0.023593   | 0.035561   | 0.05557    |   4.3 | 42.99
Output  | 0          | 0          | 0          |   0.0 |  0.00
Modify  | 2.0314e-05 | 0.0026486  | 0.0045844  |   2.0 |  3.20
Other   |            | 0.02086    |            |       | 25.22

Nlocal:            3.4 ave           6 max           0 min
Histogram: 1 2 0 4 0 5 1 0 3 4
Nghost:         2987.3 ave        3068 max        2892 min
Histogram: 2 0 2 2 2 4 3 1 0 4
Neighs:        1639.55 ave        3036 max           0 min
Histogram: 1 2 1 3 5 0 1 1 2 4

Total # of neighbors = 32791
Ave neighs/atom = 482.22059
Ave special neighs/atom = 4.9411765
Neighbor list builds = 15
Dangerous builds = 4
unfix           1
min_style       fire
variable        tempstp    equal $(step)
variable        tempstp    equal 80939
variable        CellMinStep equal ${tempstp}
variable        CellMinStep equal 80939
minimize        1.0e-15 1.0e-15 10000 100000
WARNING: Using 'neigh_modify every 1 delay 0 check yes' setting during minimization (src/min.cpp:187)
----------------------------------------------------------
Using INTEL Package without Coprocessor.
Compiler: Intel LLVM C++ 202202.0 / Intel(R) oneAPI DPC++/C++ Compiler 2022.2.1 (2022.2.1.20221020)
SIMD compiler directives: Enabled
Precision: mixed
----------------------------------------------------------
Generated 6 of 6 mixed pair_coeff terms from arithmetic mixing rule
  Parameters for fire: 
    dmax delaystep dtgrow dtshrink alpha0 alphashrink tmax tmin    integrator halfstepback 
     0.1        20    1.1      0.5   0.25        0.99   10 0.02 eulerimplicit          yes 
WARNING: Bond/angle/dihedral extent > half of periodic box length (src/domain.cpp:940)
Per MPI rank memory allocation (min/avg/max) = 14.72 | 15.11 | 15.43 Mbytes
   Step          Temp          E_pair         E_mol          TotEng         Press     
     80939   0              27.445273      24.218501      51.663774      8952.5477    
     90939   6.0046504e-07  26.810911      24.098746      50.909658      9912.5582    
WARNING: Bond/angle/dihedral extent > half of periodic box length (src/domain.cpp:940)
Loop time of 2.70769 on 40 procs for 10000 steps with 68 atoms

98.2% CPU use with 20 MPI tasks x 2 OpenMP threads

Minimization stats:
  Stopping criterion = max iterations
  Energy initial, next-to-last, final = 
      51.6637735149304   50.9097065130642   50.9096574765078
  Force two-norm initial, final = 39.873613 0.01770918
  Force max component initial, final = 26.789473 0.0058472065
  Final line search alpha, max atom move = 0 0
  Iterations, force evaluations = 10000 10530

MPI task timing breakdown:
Section |  min time  |  avg time  |  max time  |%varavg| %total
---------------------------------------------------------------
Pair    | 0.054134   | 0.45496    | 0.72043    |  23.1 | 16.80
Bond    | 0.0016911  | 0.29711    | 0.51505    |  30.1 | 10.97
Neigh   | 0          | 0          | 0          |   0.0 |  0.00
Comm    | 1.0164     | 1.5325     | 2.2894     |  25.9 | 56.60
Output  | 4.6962e-05 | 4.8415e-05 | 5.6355e-05 |   0.0 |  0.00
Modify  | 0.0011138  | 0.14856    | 0.20314    |  11.7 |  5.49
Other   |            | 0.2745     |            |       | 10.14

Nlocal:            3.4 ave           6 max           0 min
Histogram: 1 2 0 4 0 5 1 0 3 4
Nghost:         2987.3 ave        3068 max        2892 min
Histogram: 2 0 2 2 2 4 3 1 0 4
Neighs:        1639.45 ave        3036 max           0 min
Histogram: 1 2 1 3 5 0 1 1 2 4

Total # of neighbors = 32789
Ave neighs/atom = 482.19118
Ave special neighs/atom = 4.9411765
Neighbor list builds = 0
Dangerous builds = 0
variable        AtomMinStep equal $(step)
variable        AtomMinStep equal 90939
variable        temppe     equal $(pe)
variable        temppe     equal 50.90965747650782447
variable        min_E      equal abs(${prev_E}-${temppe})
variable        min_E      equal abs(50.8553988324034-${temppe})
variable        min_E      equal abs(50.8553988324034-50.9096574765078)
print           "${iter},${CellMinStep},${AtomMinStep},${AtomMinStep},$(pe),${min_E}" append p1_structure.min.csv screen no
if              "${min_E} < ${min_eval}" then "jump SELF break_min"
variable        prev_E     equal ${temppe}
variable        prev_E     equal 50.9096574765078
next            iter
jump            SELF loop_min
min_style       cg
fix             1 all box/relax tri 10000 vmax 0.05
minimize        1.0e-15 1.0e-15 10000 100000
WARNING: Using 'neigh_modify every 1 delay 0 check yes' setting during minimization (src/min.cpp:187)
----------------------------------------------------------
Using INTEL Package without Coprocessor.
Compiler: Intel LLVM C++ 202202.0 / Intel(R) oneAPI DPC++/C++ Compiler 2022.2.1 (2022.2.1.20221020)
SIMD compiler directives: Enabled
Precision: mixed
----------------------------------------------------------
Generated 6 of 6 mixed pair_coeff terms from arithmetic mixing rule
WARNING: Bond/angle/dihedral extent > half of periodic box length (src/domain.cpp:940)
Per MPI rank memory allocation (min/avg/max) = 15.85 | 16.23 | 16.56 Mbytes
   Step          Temp          E_pair         E_mol          TotEng         Press          Volume    
     90939   6.0046504e-07  26.810913      24.098746      50.909659      9912.5585      900.36111    
     90946   6.0046504e-07  26.86898       24.077331      50.946311      10173.907      900.09624    
WARNING: Bond/angle/dihedral extent > half of periodic box length (src/domain.cpp:940)
Loop time of 0.0659294 on 40 procs for 7 steps with 68 atoms

95.6% CPU use with 20 MPI tasks x 2 OpenMP threads

Minimization stats:
  Stopping criterion = linesearch alpha is zero
  Energy initial, next-to-last, final = 
      50.9096586546382   50.9076820507022   50.9076820507022
  Force two-norm initial, final = 7.8784056 5.3212069
  Force max component initial, final = 6.1864075 3.789277
  Final line search alpha, max atom move = 3.932455e-10 1.4901161e-09
  Iterations, force evaluations = 7 169

MPI task timing breakdown:
Section |  min time  |  avg time  |  max time  |%varavg| %total
---------------------------------------------------------------
Pair    | 0.00089247 | 0.011227   | 0.016534   |   3.3 | 17.03
Bond    | 3.6586e-05 | 0.0058182  | 0.010022   |   4.2 |  8.82
Neigh   | 0.00178    | 0.0018597  | 0.0019855  |   0.1 |  2.82
Comm    | 0.017791   | 0.028003   | 0.04566    |   4.1 | 42.47
Output  | 0          | 0          | 0          |   0.0 |  0.00
Modify  | 1.691e-05  | 0.0022018  | 0.0035062  |   1.7 |  3.34
Other   |            | 0.01682    |            |       | 25.51

Nlocal:            3.4 ave           6 max           0 min
Histogram: 1 2 0 4 0 5 1 0 3 4
Nghost:         2994.3 ave        3088 max        2891 min
Histogram: 2 2 2 0 6 0 0 4 0 4
Neighs:         1639.4 ave        3031 max           0 min
Histogram: 1 2 1 3 5 0 1 1 2 4

Total # of neighbors = 32788
Ave neighs/atom = 482.17647
Ave special neighs/atom = 4.9411765
Neighbor list builds = 8
Dangerous builds = 5
unfix           1
min_style       fire
variable        tempstp    equal $(step)
variable        tempstp    equal 90946
variable        CellMinStep equal ${tempstp}
variable        CellMinStep equal 90946
minimize        1.0e-15 1.0e-15 10000 100000
WARNING: Using 'neigh_modify every 1 delay 0 check yes' setting during minimization (src/min.cpp:187)
----------------------------------------------------------
Using INTEL Package without Coprocessor.
Compiler: Intel LLVM C++ 202202.0 / Intel(R) oneAPI DPC++/C++ Compiler 2022.2.1 (2022.2.1.20221020)
SIMD compiler directives: Enabled
Precision: mixed
----------------------------------------------------------
Generated 6 of 6 mixed pair_coeff terms from arithmetic mixing rule
  Parameters for fire: 
    dmax delaystep dtgrow dtshrink alpha0 alphashrink tmax tmin    integrator halfstepback 
     0.1        20    1.1      0.5   0.25        0.99   10 0.02 eulerimplicit          yes 
WARNING: Bond/angle/dihedral extent > half of periodic box length (src/domain.cpp:940)
Per MPI rank memory allocation (min/avg/max) = 14.72 | 15.11 | 15.43 Mbytes
   Step          Temp          E_pair         E_mol          TotEng         Press     
     90946   0              26.86898       24.077331      50.946311      10173.907    
    100946   1.2325175e-06  26.797713      24.120227      50.917941      9935.1754    
WARNING: Bond/angle/dihedral extent > half of periodic box length (src/domain.cpp:940)
Loop time of 2.7343 on 40 procs for 10000 steps with 68 atoms

97.6% CPU use with 20 MPI tasks x 2 OpenMP threads

Minimization stats:
  Stopping criterion = max iterations
  Energy initial, next-to-last, final = 
      50.9463112608877   50.9179722702301   50.9179404208864
  Force two-norm initial, final = 2.012341 0.017470226
  Force max component initial, final = 0.79494631 0.00809058
  Final line search alpha, max atom move = 0 0
  Iterations, force evaluations = 10000 10487

MPI task timing breakdown:
Section |  min time  |  avg time  |  max time  |%varavg| %total
---------------------------------------------------------------
Pair    | 0.054467   | 0.45681    | 0.7059     |  22.3 | 16.71
Bond    | 0.0016833  | 0.30072    | 0.51598    |  30.1 | 11.00
Neigh   | 0          | 0          | 0          |   0.0 |  0.00
Comm    | 1.0637     | 1.5456     | 2.2997     |  25.4 | 56.53
Output  | 0.00014389 | 0.00017724 | 0.00024574 |   0.0 |  0.01
Modify  | 0.0010362  | 0.14806    | 0.21117    |  12.0 |  5.41
Other   |            | 0.2829     |            |       | 10.35

Nlocal:            3.4 ave           6 max           0 min
Histogram: 1 2 0 4 0 5 1 0 3 4
Nghost:         2994.3 ave        3088 max        2891 min
Histogram: 2 2 2 0 6 0 0 4 0 4
Neighs:        1639.55 ave        3031 max           0 min
Histogram: 1 2 1 3 5 0 1 1 2 4

Total # of neighbors = 32791
Ave neighs/atom = 482.22059
Ave special neighs/atom = 4.9411765
Neighbor list builds = 0
Dangerous builds = 0
variable        AtomMinStep equal $(step)
variable        AtomMinStep equal 100946
variable        temppe     equal $(pe)
variable        temppe     equal 50.917940420886388608
variable        min_E      equal abs(${prev_E}-${temppe})
variable        min_E      equal abs(50.9096574765078-${temppe})
variable        min_E      equal abs(50.9096574765078-50.9179404208864)
print           "${iter},${CellMinStep},${AtomMinStep},${AtomMinStep},$(pe),${min_E}" append p1_structure.min.csv screen no
if              "${min_E} < ${min_eval}" then "jump SELF break_min"
variable        prev_E     equal ${temppe}
variable        prev_E     equal 50.9179404208864
next            iter
jump            SELF loop_min
min_style       cg
fix             1 all box/relax tri 10000 vmax 0.05
minimize        1.0e-15 1.0e-15 10000 100000
WARNING: Using 'neigh_modify every 1 delay 0 check yes' setting during minimization (src/min.cpp:187)
----------------------------------------------------------
Using INTEL Package without Coprocessor.
Compiler: Intel LLVM C++ 202202.0 / Intel(R) oneAPI DPC++/C++ Compiler 2022.2.1 (2022.2.1.20221020)
SIMD compiler directives: Enabled
Precision: mixed
----------------------------------------------------------
Generated 6 of 6 mixed pair_coeff terms from arithmetic mixing rule
WARNING: Bond/angle/dihedral extent > half of periodic box length (src/domain.cpp:940)
Per MPI rank memory allocation (min/avg/max) = 15.85 | 16.23 | 16.56 Mbytes
   Step          Temp          E_pair         E_mol          TotEng         Press          Volume    
    100946   1.2325175e-06  26.797714      24.120227      50.917941      9935.1756      900.09624    
    100955   1.2325175e-06  26.782828      24.141572      50.9244        9930.6704      900.03195    
WARNING: Bond/angle/dihedral extent > half of periodic box length (src/domain.cpp:940)
Loop time of 0.0725526 on 40 procs for 9 steps with 68 atoms

94.0% CPU use with 20 MPI tasks x 2 OpenMP threads

Minimization stats:
  Stopping criterion = linesearch alpha is zero
  Energy initial, next-to-last, final = 
      50.9179408902439   50.9150243781858   50.9150243781858
  Force two-norm initial, final = 6.9304401 5.1145204
  Force max component initial, final = 5.4031772 4.515902
  Final line search alpha, max atom move = 3.2989918e-10 1.4897923e-09
  Iterations, force evaluations = 9 184

MPI task timing breakdown:
Section |  min time  |  avg time  |  max time  |%varavg| %total
---------------------------------------------------------------
Pair    | 0.00095453 | 0.012052   | 0.017653   |   3.5 | 16.61
Bond    | 3.8129e-05 | 0.0062988  | 0.011073   |   4.5 |  8.68
Neigh   | 0.0017955  | 0.0019209  | 0.0020468  |   0.2 |  2.65
Comm    | 0.02037    | 0.031068   | 0.049455   |   4.4 | 42.82
Output  | 0          | 0          | 0          |   0.0 |  0.00
Modify  | 1.8694e-05 | 0.0024043  | 0.0042806  |   1.9 |  3.31
Other   |            | 0.01881    |            |       | 25.92

Nlocal:            3.4 ave           6 max           0 min
Histogram: 1 2 0 4 0 4 2 0 4 3
Nghost:         2994.3 ave        3088 max        2891 min
Histogram: 2 2 2 0 6 0 0 4 0 4
Neighs:         1639.7 ave        3029 max           0 min
Histogram: 1 2 1 3 4 0 2 2 2 3

Total # of neighbors = 32794
Ave neighs/atom = 482.26471
Ave special neighs/atom = 4.9411765
Neighbor list builds = 8
Dangerous builds = 5
unfix           1
min_style       fire
variable        tempstp    equal $(step)
variable        tempstp    equal 100955
variable        CellMinStep equal ${tempstp}
variable        CellMinStep equal 100955
minimize        1.0e-15 1.0e-15 10000 100000
WARNING: Using 'neigh_modify every 1 delay 0 check yes' setting during minimization (src/min.cpp:187)
----------------------------------------------------------
Using INTEL Package without Coprocessor.
Compiler: Intel LLVM C++ 202202.0 / Intel(R) oneAPI DPC++/C++ Compiler 2022.2.1 (2022.2.1.20221020)
SIMD compiler directives: Enabled
Precision: mixed
----------------------------------------------------------
Generated 6 of 6 mixed pair_coeff terms from arithmetic mixing rule
  Parameters for fire: 
    dmax delaystep dtgrow dtshrink alpha0 alphashrink tmax tmin    integrator halfstepback 
     0.1        20    1.1      0.5   0.25        0.99   10 0.02 eulerimplicit          yes 
WARNING: Bond/angle/dihedral extent > half of periodic box length (src/domain.cpp:940)
Per MPI rank memory allocation (min/avg/max) = 14.72 | 15.11 | 15.43 Mbytes
   Step          Temp          E_pair         E_mol          TotEng         Press     
    100955   0              26.782828      24.141572      50.9244        9930.6704    
    110955   1.1106328e-07  26.785837      24.128027      50.913864      9933.7859    
WARNING: Bond/angle/dihedral extent > half of periodic box length (src/domain.cpp:940)
Loop time of 2.72632 on 40 procs for 10000 steps with 68 atoms

97.2% CPU use with 20 MPI tasks x 2 OpenMP threads

Minimization stats:
  Stopping criterion = max iterations
  Energy initial, next-to-last, final = 
      50.9243998195064   50.9138417237594   50.9138644157393
  Force two-norm initial, final = 0.95333204 0.012329873
  Force max component initial, final = 0.2364752 0.0040437677
  Final line search alpha, max atom move = 0 0
  Iterations, force evaluations = 10000 10489

MPI task timing breakdown:
Section |  min time  |  avg time  |  max time  |%varavg| %total
---------------------------------------------------------------
Pair    | 0.054421   | 0.4621     | 0.72129    |  22.7 | 16.95
Bond    | 0.0016676  | 0.30336    | 0.51247    |  30.2 | 11.13
Neigh   | 0          | 0          | 0          |   0.0 |  0.00
Comm    | 1.0294     | 1.5243     | 2.3        |  26.0 | 55.91
Output  | 3.4087e-05 | 3.7995e-05 | 4.3779e-05 |   0.0 |  0.00
Modify  | 0.0010039  | 0.15034    | 0.22177    |  12.7 |  5.51
Other   |            | 0.2862     |            |       | 10.50

Nlocal:            3.4 ave           6 max           0 min
Histogram: 1 2 0 4 0 4 2 0 4 3
Nghost:         2994.3 ave        3088 max        2891 min
Histogram: 2 2 2 0 6 0 0 4 0 4
Neighs:        1639.55 ave        3029 max           0 min
Histogram: 1 2 1 3 4 0 2 2 2 3

Total # of neighbors = 32791
Ave neighs/atom = 482.22059
Ave special neighs/atom = 4.9411765
Neighbor list builds = 0
Dangerous builds = 0
variable        AtomMinStep equal $(step)
variable        AtomMinStep equal 110955
variable        temppe     equal $(pe)
variable        temppe     equal 50.91386441573925481
variable        min_E      equal abs(${prev_E}-${temppe})
variable        min_E      equal abs(50.9179404208864-${temppe})
variable        min_E      equal abs(50.9179404208864-50.9138644157393)
print           "${iter},${CellMinStep},${AtomMinStep},${AtomMinStep},$(pe),${min_E}" append p1_structure.min.csv screen no
if              "${min_E} < ${min_eval}" then "jump SELF break_min"
variable        prev_E     equal ${temppe}
variable        prev_E     equal 50.9138644157393
next            iter
jump            SELF loop_min
min_style       cg
fix             1 all box/relax tri 10000 vmax 0.05
minimize        1.0e-15 1.0e-15 10000 100000
WARNING: Using 'neigh_modify every 1 delay 0 check yes' setting during minimization (src/min.cpp:187)
----------------------------------------------------------
Using INTEL Package without Coprocessor.
Compiler: Intel LLVM C++ 202202.0 / Intel(R) oneAPI DPC++/C++ Compiler 2022.2.1 (2022.2.1.20221020)
SIMD compiler directives: Enabled
Precision: mixed
----------------------------------------------------------
Generated 6 of 6 mixed pair_coeff terms from arithmetic mixing rule
WARNING: Bond/angle/dihedral extent > half of periodic box length (src/domain.cpp:940)
Per MPI rank memory allocation (min/avg/max) = 15.85 | 16.23 | 16.56 Mbytes
   Step          Temp          E_pair         E_mol          TotEng         Press          Volume    
    110955   1.1106328e-07  26.785837      24.128027      50.913864      9933.7859      900.03195    
    110963   1.1106328e-07  26.776409      24.13917       50.915579      10001.466      899.99891    
WARNING: Bond/angle/dihedral extent > half of periodic box length (src/domain.cpp:940)
Loop time of 0.0565371 on 40 procs for 8 steps with 68 atoms

98.0% CPU use with 20 MPI tasks x 2 OpenMP threads

Minimization stats:
  Stopping criterion = linesearch alpha is zero
  Energy initial, next-to-last, final = 
      50.9138644157394   50.9107595798312   50.9107595798312
  Force two-norm initial, final = 6.6271869 2.0211006
  Force max component initial, final = 5.2767822 1.3606913
  Final line search alpha, max atom move = 2.190234e-09 2.9802322e-09
  Iterations, force evaluations = 8 144

MPI task timing breakdown:
Section |  min time  |  avg time  |  max time  |%varavg| %total
---------------------------------------------------------------
Pair    | 0.00079423 | 0.0094221  | 0.01471    |   3.2 | 16.67
Bond    | 3.0293e-05 | 0.0047371  | 0.0087102  |   3.9 |  8.38
Neigh   | 0.00046865 | 0.00049899 | 0.00053226 |   0.0 |  0.88
Comm    | 0.015509   | 0.02528    | 0.039339   |   3.8 | 44.71
Output  | 0          | 0          | 0          |   0.0 |  0.00
Modify  | 1.5122e-05 | 0.0019233  | 0.0033398  |   1.8 |  3.40
Other   |            | 0.01468    |            |       | 25.96

Nlocal:            3.4 ave           6 max           0 min
Histogram: 1 2 0 4 0 4 2 0 4 3
Nghost:         2994.3 ave        3088 max        2891 min
Histogram: 2 2 2 0 6 0 0 4 0 4
Neighs:           1640 ave        3032 max           0 min
Histogram: 1 2 1 3 4 0 2 2 2 3

Total # of neighbors = 32800
Ave neighs/atom = 482.35294
Ave special neighs/atom = 4.9411765
Neighbor list builds = 2
Dangerous builds = 2
unfix           1
min_style       fire
variable        tempstp    equal $(step)
variable        tempstp    equal 110963
variable        CellMinStep equal ${tempstp}
variable        CellMinStep equal 110963
minimize        1.0e-15 1.0e-15 10000 100000
WARNING: Using 'neigh_modify every 1 delay 0 check yes' setting during minimization (src/min.cpp:187)
----------------------------------------------------------
Using INTEL Package without Coprocessor.
Compiler: Intel LLVM C++ 202202.0 / Intel(R) oneAPI DPC++/C++ Compiler 2022.2.1 (2022.2.1.20221020)
SIMD compiler directives: Enabled
Precision: mixed
----------------------------------------------------------
Generated 6 of 6 mixed pair_coeff terms from arithmetic mixing rule
  Parameters for fire: 
    dmax delaystep dtgrow dtshrink alpha0 alphashrink tmax tmin    integrator halfstepback 
     0.1        20    1.1      0.5   0.25        0.99   10 0.02 eulerimplicit          yes 
WARNING: Bond/angle/dihedral extent > half of periodic box length (src/domain.cpp:940)
Per MPI rank memory allocation (min/avg/max) = 14.72 | 15.11 | 15.43 Mbytes
   Step          Temp          E_pair         E_mol          TotEng         Press     
    110963   0              26.776409      24.13917       50.915579      10001.466    
    120963   1.8950258e-07  26.761721      24.143123      50.904844      9926.3464    
WARNING: Bond/angle/dihedral extent > half of periodic box length (src/domain.cpp:940)
Loop time of 2.74457 on 40 procs for 10000 steps with 68 atoms

97.6% CPU use with 20 MPI tasks x 2 OpenMP threads

Minimization stats:
  Stopping criterion = max iterations
  Energy initial, next-to-last, final = 
      50.9155788730691   50.9049920014755   50.9048441197243
  Force two-norm initial, final = 1.2266528 0.012887856
  Force max component initial, final = 0.43786502 0.0056827496
  Final line search alpha, max atom move = 0 0
  Iterations, force evaluations = 10000 10498

MPI task timing breakdown:
Section |  min time  |  avg time  |  max time  |%varavg| %total
---------------------------------------------------------------
Pair    | 0.054973   | 0.45996    | 0.70232    |  22.6 | 16.76
Bond    | 0.0019345  | 0.3041     | 0.5309     |  30.4 | 11.08
Neigh   | 0          | 0          | 0          |   0.0 |  0.00
Comm    | 1.0544     | 1.5503     | 2.3262     |  26.2 | 56.49
Output  | 3.5948e-05 | 3.697e-05  | 4.5664e-05 |   0.0 |  0.00
Modify  | 0.0010339  | 0.14969    | 0.22426    |  12.2 |  5.45
Other   |            | 0.2805     |            |       | 10.22

Nlocal:            3.4 ave           6 max           0 min
Histogram: 1 2 0 4 0 4 2 0 4 3
Nghost:         2990.8 ave        3081 max        2891 min
Histogram: 2 1 3 0 6 0 0 4 0 4
Neighs:        1639.85 ave        3031 max           0 min
Histogram: 1 2 1 3 4 0 2 2 2 3

Total # of neighbors = 32797
Ave neighs/atom = 482.30882
Ave special neighs/atom = 4.9411765
Neighbor list builds = 0
Dangerous builds = 0
variable        AtomMinStep equal $(step)
variable        AtomMinStep equal 120963
variable        temppe     equal $(pe)
variable        temppe     equal 50.904844119724280915
variable        min_E      equal abs(${prev_E}-${temppe})
variable        min_E      equal abs(50.9138644157393-${temppe})
variable        min_E      equal abs(50.9138644157393-50.9048441197243)
print           "${iter},${CellMinStep},${AtomMinStep},${AtomMinStep},$(pe),${min_E}" append p1_structure.min.csv screen no
if              "${min_E} < ${min_eval}" then "jump SELF break_min"
variable        prev_E     equal ${temppe}
variable        prev_E     equal 50.9048441197243
next            iter
jump            SELF loop_min
min_style       cg
fix             1 all box/relax tri 10000 vmax 0.05
minimize        1.0e-15 1.0e-15 10000 100000
WARNING: Using 'neigh_modify every 1 delay 0 check yes' setting during minimization (src/min.cpp:187)
----------------------------------------------------------
Using INTEL Package without Coprocessor.
Compiler: Intel LLVM C++ 202202.0 / Intel(R) oneAPI DPC++/C++ Compiler 2022.2.1 (2022.2.1.20221020)
SIMD compiler directives: Enabled
Precision: mixed
----------------------------------------------------------
Generated 6 of 6 mixed pair_coeff terms from arithmetic mixing rule
WARNING: Bond/angle/dihedral extent > half of periodic box length (src/domain.cpp:940)
Per MPI rank memory allocation (min/avg/max) = 15.85 | 16.23 | 16.56 Mbytes
   Step          Temp          E_pair         E_mol          TotEng         Press          Volume    
    120963   1.8950258e-07  26.761721      24.143123      50.904844      9926.3464      899.99891    
    121003   1.8950258e-07  26.779865      24.076325      50.85619       9978.0604      899.21692    
WARNING: Bond/angle/dihedral extent > half of periodic box length (src/domain.cpp:940)
Loop time of 0.0622252 on 40 procs for 40 steps with 68 atoms

93.2% CPU use with 20 MPI tasks x 2 OpenMP threads

Minimization stats:
  Stopping criterion = linesearch alpha is zero
  Energy initial, next-to-last, final = 
      50.9048441197241   50.7421452875461   50.7421452875461
  Force two-norm initial, final = 6.0675393 4.0214687
  Force max component initial, final = 4.9437591 2.4403307
  Final line search alpha, max atom move = 6.4329746e-10 1.5698585e-09
  Iterations, force evaluations = 40 156

MPI task timing breakdown:
[...]
      50.8057670676879   50.8057005074144   50.8056575668864
  Force two-norm initial, final = 0.01173289 0.012981753
  Force max component initial, final = 0.0044100822 0.004312833
  Final line search alpha, max atom move = 0 0
  Iterations, force evaluations = 2574 4625

MPI task timing breakdown:
Section |  min time  |  avg time  |  max time  |%varavg| %total
---------------------------------------------------------------
Pair    | 0.023936   | 0.21632    | 0.31395    |  14.0 | 18.71
Bond    | 0.00077258 | 0.14498    | 0.23414    |  20.6 | 12.54
Neigh   | 0          | 0          | 0          |   0.0 |  0.00
Comm    | 0.45312    | 0.64081    | 1.0152     |  17.8 | 55.41
Output  | 7.2067e-05 | 9.2117e-05 | 0.00012452 |   0.0 |  0.01
Modify  | 0.00045781 | 0.068069   | 0.092441   |   7.4 |  5.89
Other   |            | 0.08617    |            |       |  7.45

Nlocal:            3.4 ave           6 max           0 min
Histogram: 1 2 0 4 0 4 2 0 4 3
Nghost:         2988.7 ave        3113 max        2857 min
Histogram: 2 2 0 4 2 2 2 0 4 2
Neighs:         1642.5 ave        3029 max           0 min
Histogram: 1 2 1 3 4 0 2 2 2 3

Total # of neighbors = 32850
Ave neighs/atom = 483.08824
Ave special neighs/atom = 4.9411765
Neighbor list builds = 0
Dangerous builds = 0
variable        AtomMinStep equal $(step)
variable        AtomMinStep equal 502465
variable        temppe     equal $(pe)
variable        temppe     equal 50.805657566886353038
variable        min_E      equal abs(${prev_E}-${temppe})
variable        min_E      equal abs(50.8057670676879-${temppe})
variable        min_E      equal abs(50.8057670676879-50.8056575668864)
print           "${iter},${CellMinStep},${AtomMinStep},${AtomMinStep},$(pe),${min_E}" append p1_structure.min.csv screen no
if              "${min_E} < ${min_eval}" then "jump SELF break_min"
variable        prev_E     equal ${temppe}
variable        prev_E     equal 50.8056575668864
next            iter
jump            SELF loop_min
min_style       cg
fix             1 all box/relax tri 10000 vmax 0.05
minimize        1.0e-15 1.0e-15 10000 100000
----------------------------------------------------------
Using INTEL Package without Coprocessor.
Compiler: Intel LLVM C++ 202202.0 / Intel(R) oneAPI DPC++/C++ Compiler 2022.2.1 (2022.2.1.20221020)
SIMD compiler directives: Enabled
Precision: mixed
----------------------------------------------------------
Generated 6 of 6 mixed pair_coeff terms from arithmetic mixing rule
Per MPI rank memory allocation (min/avg/max) = 15.85 | 16.24 | 16.56 Mbytes
   Step          Temp          E_pair         E_mol          TotEng         Press          Volume    
    502465   3.597834e-12   26.35366       24.451998      50.805658      9998.1222      897.22454    
    502466   3.597834e-12   26.35366       24.451998      50.805658      9998.1222      897.22454    
Loop time of 0.0164318 on 40 procs for 1 steps with 68 atoms

86.7% CPU use with 20 MPI tasks x 2 OpenMP threads

Minimization stats:
  Stopping criterion = linesearch alpha is zero
  Energy initial, next-to-last, final = 
      50.8056575668863   50.8056575668863   50.8056575668862
  Force two-norm initial, final = 0.41753688 0.41753688
  Force max component initial, final = 0.36552361 0.36552361
  Final line search alpha, max atom move = 6.5226588e-08 2.3841858e-08
  Iterations, force evaluations = 1 42

MPI task timing breakdown:
Section |  min time  |  avg time  |  max time  |%varavg| %total
---------------------------------------------------------------
Pair    | 0.00023245 | 0.003024   | 0.0042769  |   1.6 | 18.40
Bond    | 1.0279e-05 | 0.0015826  | 0.0026295  |   2.2 |  9.63
Neigh   | 0          | 0          | 0          |   0.0 |  0.00
Comm    | 0.0045182  | 0.0069012  | 0.011612   |   2.2 | 42.00
Output  | 0          | 0          | 0          |   0.0 |  0.00
Modify  | 5.062e-06  | 0.00061653 | 0.00094813 |   0.0 |  3.75
Other   |            | 0.004308   |            |       | 26.21

Nlocal:            3.4 ave           6 max           0 min
Histogram: 1 2 0 4 0 4 2 0 4 3
Nghost:         2988.7 ave        3113 max        2857 min
Histogram: 2 2 0 4 2 2 2 0 4 2
Neighs:         1642.5 ave        3029 max           0 min
Histogram: 1 2 1 3 4 0 2 2 2 3

Total # of neighbors = 32850
Ave neighs/atom = 483.08824
Ave special neighs/atom = 4.9411765
Neighbor list builds = 0
Dangerous builds = 0
unfix           1
min_style       fire
variable        tempstp    equal $(step)
variable        tempstp    equal 502466
variable        CellMinStep equal ${tempstp}
variable        CellMinStep equal 502466
minimize        1.0e-15 1.0e-15 10000 100000
----------------------------------------------------------
Using INTEL Package without Coprocessor.
Compiler: Intel LLVM C++ 202202.0 / Intel(R) oneAPI DPC++/C++ Compiler 2022.2.1 (2022.2.1.20221020)
SIMD compiler directives: Enabled
Precision: mixed
----------------------------------------------------------
Generated 6 of 6 mixed pair_coeff terms from arithmetic mixing rule
  Parameters for fire: 
    dmax delaystep dtgrow dtshrink alpha0 alphashrink tmax tmin    integrator halfstepback 
     0.1        20    1.1      0.5   0.25        0.99   10 0.02 eulerimplicit          yes 
Per MPI rank memory allocation (min/avg/max) = 14.72 | 15.11 | 15.43 Mbytes
   Step          Temp          E_pair         E_mol          TotEng         Press     
    502466   0              26.35366       24.451998      50.805658      9998.1222    
    504566   1.300996e-11   26.353664      24.451988      50.805652      9997.7594    
Loop time of 1.05587 on 40 procs for 2100 steps with 68 atoms

95.2% CPU use with 20 MPI tasks x 2 OpenMP threads

Minimization stats:
  Stopping criterion = max iterations with v.f negative
  Energy initial, next-to-last, final = 
      50.8056575668862   50.8056779365601   50.8056515238062
  Force two-norm initial, final = 0.012981753 0.011259965
  Force max component initial, final = 0.004312833 0.0043072736
  Final line search alpha, max atom move = 0 0
  Iterations, force evaluations = 2100 4125

MPI task timing breakdown:
Section |  min time  |  avg time  |  max time  |%varavg| %total
---------------------------------------------------------------
Pair    | 0.021582   | 0.19182    | 0.27666    |  12.9 | 18.17
Bond    | 0.00077812 | 0.12779    | 0.20579    |  19.3 | 12.10
Neigh   | 0          | 0          | 0          |   0.0 |  0.00
Comm    | 0.42813    | 0.59245    | 0.92598    |  16.2 | 56.11
Output  | 0          | 0          | 0          |   0.0 |  0.00
Modify  | 0.00040624 | 0.062033   | 0.083962   |   7.2 |  5.88
Other   |            | 0.08177    |            |       |  7.74

Nlocal:            3.4 ave           6 max           0 min
Histogram: 1 2 0 4 0 4 2 0 4 3
Nghost:         2988.7 ave        3113 max        2857 min
Histogram: 2 2 0 4 2 2 2 0 4 2
Neighs:         1642.5 ave        3029 max           0 min
Histogram: 1 2 1 3 4 0 2 2 2 3

Total # of neighbors = 32850
Ave neighs/atom = 483.08824
Ave special neighs/atom = 4.9411765
Neighbor list builds = 0
Dangerous builds = 0
variable        AtomMinStep equal $(step)
variable        AtomMinStep equal 504566
variable        temppe     equal $(pe)
variable        temppe     equal 50.805651523806218961
variable        min_E      equal abs(${prev_E}-${temppe})
variable        min_E      equal abs(50.8056575668864-${temppe})
variable        min_E      equal abs(50.8056575668864-50.8056515238062)
print           "${iter},${CellMinStep},${AtomMinStep},${AtomMinStep},$(pe),${min_E}" append p1_structure.min.csv screen no
if              "${min_E} < ${min_eval}" then "jump SELF break_min"
variable        prev_E     equal ${temppe}
variable        prev_E     equal 50.8056515238062
next            iter
jump            SELF loop_min
min_style       cg
fix             1 all box/relax tri 10000 vmax 0.05
minimize        1.0e-15 1.0e-15 10000 100000
----------------------------------------------------------
Using INTEL Package without Coprocessor.
Compiler: Intel LLVM C++ 202202.0 / Intel(R) oneAPI DPC++/C++ Compiler 2022.2.1 (2022.2.1.20221020)
SIMD compiler directives: Enabled
Precision: mixed
----------------------------------------------------------
Generated 6 of 6 mixed pair_coeff terms from arithmetic mixing rule
Per MPI rank memory allocation (min/avg/max) = 15.85 | 16.24 | 16.56 Mbytes
   Step          Temp          E_pair         E_mol          TotEng         Press          Volume    
    504566   1.300996e-11   26.353664      24.451988      50.805652      9997.7594      897.22454    
    504567   1.300996e-11   26.353664      24.451988      50.805652      9997.7594      897.22454    
Loop time of 0.0161082 on 40 procs for 1 steps with 68 atoms

99.0% CPU use with 20 MPI tasks x 2 OpenMP threads

Minimization stats:
  Stopping criterion = linesearch alpha is zero
  Energy initial, next-to-last, final = 
      50.8056515238062   50.8056515238062   50.8056515238062
  Force two-norm initial, final = 0.41898391 0.41898391
  Force max component initial, final = 0.36535815 0.36535815
  Final line search alpha, max atom move = 6.5256128e-08 2.3841858e-08
  Iterations, force evaluations = 1 41

MPI task timing breakdown:
Section |  min time  |  avg time  |  max time  |%varavg| %total
---------------------------------------------------------------
Pair    | 0.00021364 | 0.0028877  | 0.0040638  |   1.5 | 17.93
Bond    | 9.284e-06  | 0.001581   | 0.0025599  |   2.1 |  9.81
Neigh   | 0          | 0          | 0          |   0.0 |  0.00
Comm    | 0.004556   | 0.0066428  | 0.011271   |   2.1 | 41.24
Output  | 0          | 0          | 0          |   0.0 |  0.00
Modify  | 4.693e-06  | 0.00058044 | 0.00091563 |   0.0 |  3.60
Other   |            | 0.004416   |            |       | 27.42

Nlocal:            3.4 ave           6 max           0 min
Histogram: 1 2 0 4 0 4 2 0 4 3
Nghost:         2988.7 ave        3113 max        2857 min
Histogram: 2 2 0 4 2 2 2 0 4 2
Neighs:         1642.5 ave        3029 max           0 min
Histogram: 1 2 1 3 4 0 2 2 2 3

Total # of neighbors = 32850
Ave neighs/atom = 483.08824
Ave special neighs/atom = 4.9411765
Neighbor list builds = 0
Dangerous builds = 0
unfix           1
min_style       fire
variable        tempstp    equal $(step)
variable        tempstp    equal 504567
variable        CellMinStep equal ${tempstp}
variable        CellMinStep equal 504567
minimize        1.0e-15 1.0e-15 10000 100000
----------------------------------------------------------
Using INTEL Package without Coprocessor.
Compiler: Intel LLVM C++ 202202.0 / Intel(R) oneAPI DPC++/C++ Compiler 2022.2.1 (2022.2.1.20221020)
SIMD compiler directives: Enabled
Precision: mixed
----------------------------------------------------------
Generated 6 of 6 mixed pair_coeff terms from arithmetic mixing rule
  Parameters for fire: 
    dmax delaystep dtgrow dtshrink alpha0 alphashrink tmax tmin    integrator halfstepback 
     0.1        20    1.1      0.5   0.25        0.99   10 0.02 eulerimplicit          yes 
Per MPI rank memory allocation (min/avg/max) = 14.72 | 15.11 | 15.43 Mbytes
   Step          Temp          E_pair         E_mol          TotEng         Press     
    504567   0              26.353664      24.451988      50.805652      9997.7594    
    506699   4.7686925e-12  26.353558      24.452083      50.80564       9998.4167    
Loop time of 1.05415 on 40 procs for 2132 steps with 68 atoms

94.5% CPU use with 20 MPI tasks x 2 OpenMP threads

Minimization stats:
  Stopping criterion = max iterations with v.f negative
  Energy initial, next-to-last, final = 
      50.8056515238062   50.8056304978446   50.8056403762132
  Force two-norm initial, final = 0.011259965 0.014546591
  Force max component initial, final = 0.0043072736 0.0068616956
  Final line search alpha, max atom move = 0 0
  Iterations, force evaluations = 2132 4160

MPI task timing breakdown:
Section |  min time  |  avg time  |  max time  |%varavg| %total
---------------------------------------------------------------
Pair    | 0.021261   | 0.19426    | 0.28188    |  13.1 | 18.43
Bond    | 0.00068089 | 0.12964    | 0.20783    |  19.4 | 12.30
Neigh   | 0          | 0          | 0          |   0.0 |  0.00
Comm    | 0.4227     | 0.58982    | 0.92649    |  16.5 | 55.95
Output  | 0          | 0          | 0          |   0.0 |  0.00
Modify  | 0.00040242 | 0.061463   | 0.08165    |   7.1 |  5.83
Other   |            | 0.07896    |            |       |  7.49

Nlocal:            3.4 ave           6 max           0 min
Histogram: 1 2 0 4 0 4 2 0 4 3
Nghost:         2988.7 ave        3113 max        2857 min
Histogram: 2 2 0 4 2 2 2 0 4 2
Neighs:         1642.5 ave        3029 max           0 min
Histogram: 1 2 1 3 4 0 2 2 2 3

Total # of neighbors = 32850
Ave neighs/atom = 483.08824
Ave special neighs/atom = 4.9411765
Neighbor list builds = 0
Dangerous builds = 0
variable        AtomMinStep equal $(step)
variable        AtomMinStep equal 506699
variable        temppe     equal $(pe)
variable        temppe     equal 50.805640376213162313
variable        min_E      equal abs(${prev_E}-${temppe})
variable        min_E      equal abs(50.8056515238062-${temppe})
variable        min_E      equal abs(50.8056515238062-50.8056403762132)
print           "${iter},${CellMinStep},${AtomMinStep},${AtomMinStep},$(pe),${min_E}" append p1_structure.min.csv screen no
if              "${min_E} < ${min_eval}" then "jump SELF break_min"
variable        prev_E     equal ${temppe}
variable        prev_E     equal 50.8056403762132
next            iter
jump            SELF loop_min
min_style       cg
fix             1 all box/relax tri 10000 vmax 0.05
minimize        1.0e-15 1.0e-15 10000 100000
----------------------------------------------------------
Using INTEL Package without Coprocessor.
Compiler: Intel LLVM C++ 202202.0 / Intel(R) oneAPI DPC++/C++ Compiler 2022.2.1 (2022.2.1.20221020)
SIMD compiler directives: Enabled
Precision: mixed
----------------------------------------------------------
Generated 6 of 6 mixed pair_coeff terms from arithmetic mixing rule
Per MPI rank memory allocation (min/avg/max) = 15.85 | 16.24 | 16.56 Mbytes
   Step          Temp          E_pair         E_mol          TotEng         Press          Volume    
    506699   4.7686925e-12  26.353558      24.452083      50.80564       9998.4167      897.22454    
    506700   4.7686925e-12  26.353558      24.452083      50.80564       9998.4167      897.22454    
Loop time of 0.0168503 on 40 procs for 1 steps with 68 atoms

97.9% CPU use with 20 MPI tasks x 2 OpenMP threads

Minimization stats:
  Stopping criterion = linesearch alpha is zero
  Energy initial, next-to-last, final = 
      50.8056403762131   50.8056403762131   50.8056403762131
  Force two-norm initial, final = 0.41607873 0.41607873
  Force max component initial, final = 0.3661065 0.3661065
  Final line search alpha, max atom move = 6.5122739e-08 2.3841858e-08
  Iterations, force evaluations = 1 42

MPI task timing breakdown:
Section |  min time  |  avg time  |  max time  |%varavg| %total
---------------------------------------------------------------
Pair    | 0.00022805 | 0.0029531  | 0.0042718  |   1.6 | 17.53
Bond    | 9.357e-06  | 0.0015927  | 0.0025647  |   2.1 |  9.45
Neigh   | 0          | 0          | 0          |   0.0 |  0.00
Comm    | 0.0048095  | 0.007208   | 0.011885   |   2.1 | 42.78
Output  | 0          | 0          | 0          |   0.0 |  0.00
Modify  | 4.013e-06  | 0.00061595 | 0.0010275  |   0.0 |  3.66
Other   |            | 0.00448    |            |       | 26.59

Nlocal:            3.4 ave           6 max           0 min
Histogram: 1 2 0 4 0 4 2 0 4 3
Nghost:         2988.7 ave        3113 max        2857 min
Histogram: 2 2 0 4 2 2 2 0 4 2
Neighs:         1642.5 ave        3029 max           0 min
Histogram: 1 2 1 3 4 0 2 2 2 3

Total # of neighbors = 32850
Ave neighs/atom = 483.08824
Ave special neighs/atom = 4.9411765
Neighbor list builds = 0
Dangerous builds = 0
unfix           1
min_style       fire
variable        tempstp    equal $(step)
variable        tempstp    equal 506700
variable        CellMinStep equal ${tempstp}
variable        CellMinStep equal 506700
minimize        1.0e-15 1.0e-15 10000 100000
----------------------------------------------------------
Using INTEL Package without Coprocessor.
Compiler: Intel LLVM C++ 202202.0 / Intel(R) oneAPI DPC++/C++ Compiler 2022.2.1 (2022.2.1.20221020)
SIMD compiler directives: Enabled
Precision: mixed
----------------------------------------------------------
Generated 6 of 6 mixed pair_coeff terms from arithmetic mixing rule
  Parameters for fire: 
    dmax delaystep dtgrow dtshrink alpha0 alphashrink tmax tmin    integrator halfstepback 
     0.1        20    1.1      0.5   0.25        0.99   10 0.02 eulerimplicit          yes 
Per MPI rank memory allocation (min/avg/max) = 14.72 | 15.11 | 15.43 Mbytes
   Step          Temp          E_pair         E_mol          TotEng         Press     
    506700   0              26.353558      24.452083      50.80564       9998.4167    
    508750   7.318971e-12   26.353568      24.452072      50.80564       9998.1392    
Loop time of 1.02125 on 40 procs for 2050 steps with 68 atoms

95.2% CPU use with 20 MPI tasks x 2 OpenMP threads

Minimization stats:
  Stopping criterion = max iterations with v.f negative
  Energy initial, next-to-last, final = 
       50.805640376213   50.8055770939771   50.8056396487081
  Force two-norm initial, final = 0.014546591 0.012643961
  Force max component initial, final = 0.0068616956 0.0045130967
  Final line search alpha, max atom move = 0 0
  Iterations, force evaluations = 2050 4073

MPI task timing breakdown:
Section |  min time  |  avg time  |  max time  |%varavg| %total
---------------------------------------------------------------
Pair    | 0.020868   | 0.18724    | 0.27295    |  12.8 | 18.33
Bond    | 0.00071259 | 0.12819    | 0.21374    |  19.5 | 12.55
Neigh   | 0          | 0          | 0          |   0.0 |  0.00
Comm    | 0.40691    | 0.57192    | 0.89967    |  16.7 | 56.00
Output  | 0          | 0          | 0          |   0.0 |  0.00
Modify  | 0.00038359 | 0.062037   | 0.083481   |   7.2 |  6.07
Other   |            | 0.07186    |            |       |  7.04

Nlocal:            3.4 ave           6 max           0 min
Histogram: 1 2 0 4 0 4 2 0 4 3
Nghost:         2988.7 ave        3113 max        2857 min
Histogram: 2 2 0 4 2 2 2 0 4 2
Neighs:         1642.5 ave        3029 max           0 min
Histogram: 1 2 1 3 4 0 2 2 2 3

Total # of neighbors = 32850
Ave neighs/atom = 483.08824
Ave special neighs/atom = 4.9411765
Neighbor list builds = 0
Dangerous builds = 0
variable        AtomMinStep equal $(step)
variable        AtomMinStep equal 508750
variable        temppe     equal $(pe)
variable        temppe     equal 50.80563964870810878
variable        min_E      equal abs(${prev_E}-${temppe})
variable        min_E      equal abs(50.8056403762132-${temppe})
variable        min_E      equal abs(50.8056403762132-50.8056396487081)
print           "${iter},${CellMinStep},${AtomMinStep},${AtomMinStep},$(pe),${min_E}" append p1_structure.min.csv screen no
if              "${min_E} < ${min_eval}" then "jump SELF break_min"
jump SELF break_min
undump   structure_xyzmov

print " "
 
print "----------------"
----------------
print "Cell Data"
Cell Data
print "----------------"
----------------
print " "
 

variable x0 equal xlo
variable x1 equal xhi
variable y0 equal ylo
variable y1 equal yhi
variable z0 equal zlo
variable z1 equal zhi
variable XY equal xy
variable XZ equal xz
variable YZ equal yz

print "x0 = ${x0}"
x0 = 0.518151663636566
print "x1 = ${x1}"
x1 = 5.53543433636344
print "y0 = ${y0}"
y0 = 0.379253773169606
print "y1 = ${y1}"
y1 = 5.7707492268304
print "z0 = ${z0}"
z0 = 3.08434596802036
print "z1 = ${z1}"
z1 = 36.2526550319797
print "XY = ${XY}"
XY = -1.70754018994114
print "XZ = ${XZ}"
XZ = -9.12522029422705
print "YZ = ${YZ}"
YZ = 13.1082533023827
Total wall time: 0:03:15
