68
 Atoms. Timestep: 0
C 4.12661 14.1994 32.4402
C 3.13515 15.565 34.1692
C 3.53275 15.3956 32.843
C 4.323 13.1728 33.3636
C 3.33136 14.5381 35.0925
C 3.92518 13.3419 34.6898
C 3.37219 10.0167 18.5605
C 2.38073 11.3823 20.2895
C 2.77833 11.2129 18.9633
C 3.56859 8.99006 19.4839
C 2.57695 10.3554 21.2128
C 3.17077 9.15924 20.8101
C 3.88067 6.10114 1.93675
C 2.88921 7.46681 3.66573
C 2.19262 1.14738 2.33953
C 4.07707 5.07453 2.86019
C 3.08543 6.43987 4.58909
C 3.67924 5.24371 4.18636
C 1.25011 9.68024 10.0518
C 5.21805 4.8959 11.7807
C 5.61565 4.72648 10.4545
C 1.44651 8.65362 10.9752
C 6.50845 10.019 12.7041
C 1.04868 8.8228 12.3014
H 3.37537 16.2023 32.1308
H 3.03066 14.6446 36.1326
H 2.62096 12.0196 18.2511
H 2.27624 10.4619 22.2529
H 2.03525 1.9541 1.62738
H 2.78472 6.54634 5.62915
H 5.45827 5.5332 9.7424
H 6.20775 10.1254 13.7442
N 4.51312 14.0839 31.0695
N 2.53114 16.7828 34.5797
N 5.19374 18.5017 35.6438
N 5.33011 17.7257 36.3915
N 3.75871 9.90121 17.1898
N 1.77673 12.6001 20.7
N 3.34513 8.16903 21.7641
N 4.5757 13.543 22.5118
N 4.26719 5.98568 0.56605
N 1.19102 2.5346 4.07623
N 3.85361 4.25349 5.14034
N 3.98999 3.47743 5.88803
N 0.542438 3.41477 8.68106
N 4.61404 6.11369 12.1912
N 1.22305 7.83259 13.2553
N 1.35943 7.05653 14.003
O 5.96401 18.2165 33.0012
O 4.30291 15.0502 30.3042
O 5.04795 13.0208 30.6853
O 2.18158 16.9146 35.7775
O 2.36399 17.6942 33.7334
O 4.11541 7.88383 19.1215
O 3.5485 10.8675 16.4245
O 4.29354 8.83806 16.8056
O 1.42717 12.7319 21.8978
O 0.515386 7.36145 19.8537
O 4.62389 3.9683 2.49774
O 3.08463 15.209 39.1378
O 4.80202 4.92253 0.181859
O 0.841454 2.66637 5.27405
O 1.02387 3.44591 3.22999
O 1.99333 7.54739 10.6128
O 0.332226 4.3811 7.91582
O 2.17146 8.50162 8.29687
O 4.26448 6.24546 13.3891
O 4.44689 7.02501 11.345
68
 Atoms. Timestep: 15
C 3.42425 14.318 32.9904
C 2.23089 15.5239 34.8054
C 2.52944 15.3072 33.437
C 4.01789 13.5624 33.93
C 2.84159 14.7409 35.7395
C 3.75999 13.7494 35.3016
C 2.38972 10.0007 18.5224
C 1.19631 11.2065 20.3375
C 1.49488 10.9898 18.9691
C 2.98183 9.24651 19.4625
C 1.80694 10.4235 21.2716
C 2.72547 9.43202 20.8337
C 2.23158 5.74273 1.19506
C 1.03837 6.9484 3.00991
C 2.10202 1.60017 1.64174
C 2.82374 4.98854 2.13519
C 1.64875 6.1655 3.94456
C 2.56725 5.17404 3.50658
C -0.577232 9.21284 9.65389
C 5.0467 5.28708 11.4689
C 5.34524 5.07036 10.1003
C 0.0149813 8.45862 10.5938
C 4.89206 9.63555 12.4031
C -0.241323 8.64416 11.9651
H 2.06857 15.9062 32.7095
H 2.63313 14.8794 36.7862
H 1.034 11.5889 18.2417
H 1.59858 10.5621 22.3184
H 1.64108 2.19932 0.914274
H 1.44033 6.30419 4.99143
H 4.88439 5.66944 9.37281
H 4.68375 9.77426 13.45
N 3.71387 14.1043 31.5755
N 1.31242 16.5481 35.2248
N 3.74221 17.8386 36.0361
N 3.93142 17.5622 37.3733
N 2.67934 9.78683 17.1072
N 0.277864 12.2307 20.757
N 3.67943 8.3898 21.5682
N 2.8968 13.2448 22.9054
N 2.52108 5.529 -0.220205
N 0.885245 2.84103 3.42815
N 3.31495 4.13211 4.24083
N 3.50174 3.85414 5.57748
N 0.477725 3.86735 8.23955
N 4.12827 6.31128 11.8884
N 0.506672 7.60229 12.6998
N 0.694955 7.32543 14.0372
O 4.92718 12.5755 33.5955
O 3.14137 14.8611 30.7034
O 4.53694 13.2019 31.0988
O 1.02785 16.7831 36.4634
O 0.777029 17.3179 34.3455
O 3.79106 8.25668 19.1273
O 2.10687 10.5435 16.235
O 3.50241 8.8845 16.6303
O -0.006794 12.4657 21.9955
O 0.507544 7.86899 19.8777
O 3.63294 3.9987 1.79988
O 2.85854 15.5201 39.9102
O 3.34418 4.62669 -0.696858
O 0.599381 3.07559 4.66566
O 0.349467 3.61114 2.54966
O 0.824266 7.46876 10.2585
O -0.0924069 4.62629 7.36834
O 0.536055 8.09645 7.76401
O 3.84365 6.54629 13.1269
O 3.5928 7.08106 11.009
68
 Atoms. Timestep: 10431
C 0.671101 15.5373 32.326
C -0.364118 16.5354 34.3094
C -0.299696 16.3624 32.9161
C 1.61635 14.895 33.1548
C 0.577396 15.8779 35.1164
C 1.57062 15.0648 34.5498
C 0.415072 10.8011 18.44
C -0.567552 11.8629 20.4218
C -0.541589 11.6444 19.0332
C 1.38803 10.1919 19.2683
C 0.390988 11.2284 21.2247
C 1.36937 10.3996 20.6583
C 1.03384 6.12545 1.74879
C -0.190677 6.88545 3.72056
C 1.7017 1.65525 2.33283
C 1.88216 5.36039 2.57551
C 0.674973 6.13321 4.5313
C 1.71032 5.37171 3.96924
C -0.0726838 4.6889 10.1132
C 3.86414 5.50257 12.0868
C 4.03727 5.45977 10.6952
C -0.88217 9.19812 10.9442
C 3.04636 9.98994 12.903
C -1.03895 9.2298 12.3392
H -1.02976 16.849 32.2824
H 0.540931 16.004 36.1858
H -1.27851 12.13 18.4063
H 0.377925 11.3815 22.2951
H 1.04585 2.2328 1.69348
H 0.549705 6.14694 5.60096
H 3.36106 6.00799 10.0509
H 2.92041 10.0062 13.976
N 0.679596 15.3583 30.8933
N -1.39279 17.3602 34.8967
N 0.850381 19.6496 35.364
N 0.929789 19.8568 36.688
N 0.359661 10.5534 17.014
N -1.57625 12.7086 21.0135
N 2.33601 9.75116 21.4734
N 2.35582 9.8837 22.8098
N 2.88931 0.913209 0.320681
N 0.409938 2.40212 4.29746
N 2.60051 4.62709 4.78938
N 2.51797 4.63423 6.12931
N 0.0446573 4.6402 8.68132
N 2.80091 6.29021 12.6592
N -0.135166 8.49782 13.1551
N -0.277226 8.41143 14.4867
O 2.57045 14.1626 32.6239
O 0.227897 16.295 30.1086
O 1.04035 14.2242 30.364
O -1.49245 17.4977 36.1865
O -2.26801 17.9575 34.1446
O 2.29889 9.39383 18.7561
O -0.705973 10.8515 16.3314
O 1.36036 10.0248 16.3763
O -1.63662 12.8844 22.3022
O 2.65943 13.2954 20.2679
O 2.87107 4.67247 2.04973
O -0.138831 17.9669 38.7159
O -1.16468 21.0584 38.7559
O 3.59484 7.57467 5.57105
O 4.72955 3.08947 3.54185
O 0.111026 8.51563 10.4184
O -0.332414 5.65198 7.95502
O -1.27973 8.77475 8.08652
O 2.67626 6.41756 13.9461
O 1.94709 6.903 11.8943
68
 Atoms. Timestep: 20654
C -2.26024 14.2663 30.4644
C -3.4573 15.083 32.4375
C -3.25979 15.0635 31.0462
C -1.43019 13.4864 31.2992
C -2.61666 14.3064 33.2481
C -1.59903 13.5171 32.6939
C -1.40965 9.9544 19.2146
C -2.66892 10.6771 21.1913
C -2.44092 10.7077 19.8052
C -0.616872 9.12179 20.041
C -1.83657 9.88525 21.9971
C -0.810976 9.11178 21.4334
C 0.966574 5.54548 2.85095
C -0.293662 6.34539 4.77556
C -0.0422225 6.34509 3.39294
C 1.7507 4.7406 3.69024
C 0.520342 5.56171 5.61231
C 1.5453 4.7615 5.07932
C -0.94588 4.38127 11.0306
C 2.7572 5.08303 12.9776
C 3.02612 5.14159 11.6008
C -1.88909 8.9358 11.8518
C 1.83471 9.6513 13.7913
C -2.11764 8.89284 13.2383
H -3.90219 15.6529 30.4043
H -2.75146 14.3165 34.3139
H -3.06218 11.3376 19.1812
H -1.98752 9.86869 23.0668
H 1.07774 1.55674 2.72451
H 0.360716 5.57641 6.67854
H 2.4242 5.77277 10.9585
H 1.64218 9.59829 14.8534
N -2.09381 14.2712 29.0327
N -4.51488 15.8754 33.0193
N -2.44988 18.1532 33.5251
N -2.56443 18.1492 34.8633
N -1.17 10.0677 17.7922
N -3.73482 11.455 21.7759
N -1.67029 13.7263 22.2544
N -1.75171 13.7394 23.5957
N -5.06486 19.6232 37.2465
N -1.37962 7.12189 5.31982
N 2.37987 3.98248 5.92494
N 2.20579 3.94577 7.25576
N -0.678035 4.5041 9.62559
N 1.67793 5.8589 13.5375
N -1.27045 8.09883 14.0587
N -1.43847 8.00592 15.3873
O -0.465111 12.7604 30.7793
O -2.33366 15.3528 28.3469
O -1.76942 13.1836 28.3944
O -4.68825 15.9265 34.3088
O -5.34091 16.5316 32.2596
O 0.305691 8.34281 19.5176
O -2.05592 10.6258 17.0174
O -0.0228568 9.73497 17.2766
O -3.93045 11.4672 23.0633
O 0.459835 12.144 21.0218
O 2.70204 3.99652 3.17173
O -2.93342 15.3285 36.6818
O -5.18504 18.5345 36.5438
O -1.65556 7.0914 6.59053
O 4.56938 2.42241 4.53715
O -0.911024 8.22935 11.3288
O -0.733034 5.67139 9.05156
O -0.415457 3.45283 8.90563
O 1.47411 5.8983 14.8204
O 0.88534 6.54262 12.7661
68
 Atoms. Timestep: 30697
C -2.53607 14.2881 29.286
C -3.61649 15.2154 31.2718
C -3.50627 15.1081 29.877
C -1.63985 13.5795 30.1106
C -2.71705 14.5005 32.0805
C -1.72291 13.6908 31.5074
C -1.29108 10.054 20.0439
C -2.48552 10.8203 22.0442
C -2.30718 10.8139 20.6513
C -0.451888 9.26732 20.8651
C -1.62015 10.0558 22.8419
C -0.601528 9.28648 22.26
C 0.757985 5.21486 2.98195
C -0.410917 6.03225 4.96637
C -0.238509 6.00267 3.57361
C 1.6112 4.45301 3.80351
C 0.453715 5.27375 5.7728
C 1.47082 4.49269 5.19943
C -0.780934 4.25325 11.4838
C 3.04305 5.01365 13.4701
C 3.24082 5.02346 12.0799
C -1.68397 8.776 12.299
C -2.87553 9.54326 14.2704
C -1.84808 8.77831 13.6931
H -4.1995 15.6407 29.2395
H -2.78528 14.5774 33.1552
H -2.95787 11.4152 20.0315
H -1.74002 10.0584 23.9165
H 0.839541 1.26422 2.9359
H 0.33987 5.29417 6.84684
H 2.59339 5.61607 11.4469
H -3.01126 9.53172 15.3426
N -2.47961 14.178 27.8532
N -4.65209 16.0325 31.8548
N -0.790278 12.9883 32.3155
N -0.794393 13.0736 33.6556
N -1.12466 10.1041 18.6079
N -3.54249 11.6019 22.6391
N -1.44034 13.8455 23.0603
N -1.47964 13.8712 24.402
N -5.32456 19.1359 36.391
N -1.46883 6.82032 5.54899
N 2.37449 3.7549 6.0079
N 2.31516 3.77383 7.34897
N -0.608911 4.293 10.0572
N 1.97713 5.7887 14.0561
N -0.954528 8.02209 14.4955
N -1.0345 8.0025 15.8352
O -0.696102 12.8374 29.5744
O -2.81603 15.1868 27.1009
O -2.20404 13.0377 27.2885
O -4.7813 16.1363 33.1446
O -5.5068 16.6528 31.0973
O 0.474358 8.49986 20.3322
O -2.07207 10.5674 17.8476
O 0.00757301 9.78882 18.0528
O -3.70986 11.6378 23.9296
O 0.656684 12.2647 21.8899
O 2.57565 3.73739 3.26829
O -3.84549 14.8971 35.7008
O -5.02563 18.0376 35.7595
O -1.64282 6.86489 6.837
O 4.46867 2.16072 4.79107
O -0.710469 8.07359 11.7624
O -0.854829 5.38744 9.39605
O -1.85221 8.53149 9.39777
O 1.79682 5.81971 15.3439
O 1.15257 6.4514 13.3011
68
 Atoms. Timestep: 40882
C -4.13379 13.9332 28.6782
C -5.20766 14.903 30.6507
C -5.10123 14.767 29.2572
C -3.23369 13.2425 29.5141
C -4.30589 14.2022 31.4688
C -3.31763 13.3757 30.9103
C -1.50564 9.97319 20.1723
C -2.72045 10.7651 22.1492
C -2.52962 10.7378 20.7578
C -0.679009 9.19076 21.0118
C -1.85895 10.0163 22.9646
C -0.842972 9.22692 22.4068
C 0.526839 5.1078 3.48218
C -0.686977 5.90682 5.44824
C -0.481888 5.89102 4.05872
C 1.35461 4.32919 4.31338
C 0.158698 5.13727 6.26537
C 1.18255 4.35364 5.7078
C -1.13441 4.13522 11.8308
C 2.62971 4.88293 13.7865
C 2.87021 4.90452 12.4026
C -2.06081 8.6903 12.662
C -3.30909 9.44219 14.6051
C -2.2674 8.67758 14.0523
H -5.79803 15.2859 28.612
H -4.36666 14.3058 32.54
H -3.17677 11.328 20.1228
H -1.97737 10.0501 24.0356
H 0.60677 1.11665 3.41062
H 0.0255762 5.15246 7.3358
H 2.24892 5.51074 11.7552
H -3.48156 9.41718 15.6714
N -4.08899 13.7866 27.2468
N -6.24098 15.7313 31.2255
N -2.39643 12.6749 31.7344
N -2.4358 12.7468 33.0743
N -1.3131 10.0146 18.7391
N -3.78481 11.5511 22.7264
N -1.69778 13.8281 23.2319
N -1.77986 13.846 24.572
N -6.9625 18.6972 35.6215
N -1.75408 6.69399 6.01863
N 2.061 3.6007 6.53255
N 1.95751 3.59584 7.87102
N -0.904924 4.20563 10.4129
N 1.55764 5.66754 14.3499
N -1.40218 7.90844 14.8766
N -1.541 7.8564 16.2107
O -2.29118 12.491 28.9896
O -4.4624 14.7653 26.4747
O -3.79967 12.6382 26.7078
O -6.38829 15.8255 32.5144
O -7.08424 16.3608 30.462
O 0.24155 8.40676 20.4961
O -2.25101 10.4675 17.9586
O -0.166195 9.70736 18.2076
O -3.9955 11.5556 24.0101
O -4.58845 12.2358 21.9677
O 2.32547 3.61404 3.78949
O -5.40879 14.4466 34.9617
O -6.69033 17.6069 34.9654
O 3.06275 6.71226 7.30207
O 4.19425 2.00644 5.25272
O -1.07681 7.98905 12.1444
O -1.06325 5.33202 9.78117
O -2.50355 8.49696 9.73421
O 1.37265 5.72785 15.6354
O 0.743791 6.3257 13.5791
68
 Atoms. Timestep: 50888
C -4.32246 14.1147 28.6421
C -5.42398 15.0132 30.6317
C -5.29807 14.9276 29.236
C -3.44027 13.3853 29.464
C -4.53208 14.2855 31.4365
C -3.53724 13.4778 30.8628
C -1.28099 9.77896 20.2
C -2.51957 10.5113 22.1851
C -2.30885 10.5296 20.7968
C -0.464113 8.97032 21.0246
C -1.67225 9.73222 22.9869
C -0.646168 8.9644 22.418
C 0.436811 5.20094 3.48066
C -0.793439 5.93949 5.45932
C -0.576082 5.96758 4.07229
C 1.25633 4.39413 4.29386
C 0.0461168 5.14652 6.25915
C 1.07589 4.38215 5.68723
C -1.06191 4.18128 11.8403
C 2.69823 4.89105 13.8066
C 2.94159 4.94015 12.4245
C -1.98993 8.71802 12.6558
C -3.23977 9.43594 14.6108
C -2.19781 8.68147 14.0452
H -5.98071 15.4753 28.5989
H -4.60644 14.3511 32.5104
H -2.94342 11.1456 20.1738
H -1.80897 9.72236 24.0564
H 0.519826 1.21562 3.43745
H -0.0975778 5.12566 7.32796
H 2.32353 5.56047 11.7878
H -3.41212 9.39184 15.6769
N -4.23681 14.0483 27.2078
N -6.46236 15.8232 31.2216
N -2.61803 12.7609 31.6749
N -2.63087 12.84 33.0151
N -1.07714 9.86126 18.7706
N -3.58834 11.2833 22.7724
N -1.50663 13.5473 23.2321
N -1.59989 13.533 24.5715
N -7.03972 18.8386 35.617
N 3.1606 6.70793 6.04528
N 1.95443 3.61459 6.49781
N 1.87824 3.61508 7.83826
N -0.83012 4.28099 10.4257
N 1.62524 5.6633 14.3833
N -1.33376 7.89842 14.8567
N -1.47019 7.82603 16.1901
O -2.49526 12.6455 28.9251
O -4.52196 15.0936 26.4884
O -3.9847 12.9214 26.6084
O -6.61128 15.8905 32.5121
O -7.30223 16.4702 30.4696
O 0.466687 8.20507 20.4976
O -2.0115 10.3334 17.9972
O 0.0734707 9.57019 18.2376
O -3.79728 11.2745 24.0563
O -4.3924 11.9761 22.0223
O 2.23021 3.69128 3.75726
O -5.46237 14.6135 34.9955
O -6.78256 17.7671 34.9256
O 2.94911 6.69718 7.32864
O 4.08505 2.03943 5.29338
O -1.00673 8.02344 12.1259
O -0.958248 5.42665 9.8232
O -0.5615 3.22156 9.72043
O 1.44698 5.70908 15.6703
O 0.809971 6.33228 13.6238
68
 Atoms. Timestep: 60892
C -4.31643 14.1481 28.635
C -5.4551 15.0005 30.6237
C -5.30286 14.9476 29.2289
C -3.45242 13.3962 29.4557
C -4.57818 14.2542 31.4281
C -3.57334 13.4589 30.8544
C -1.24269 9.7874 20.2048
C -2.47257 10.5315 22.1911
C -2.2676 10.5419 20.8018
C -0.421578 8.9845 21.0308
C -1.62226 9.75675 22.994
C -0.597971 8.98637 22.4251
C 0.395102 5.16654 3.48
C -0.82273 5.91831 5.46148
C -0.614056 5.93708 4.07287
C 1.22041 4.366 4.29352
C 0.0218577 5.13073 6.26135
C 1.04829 4.36286 5.68814
C -1.05785 4.18506 11.8427
C 2.70387 4.89599 13.8102
C 2.94551 4.94431 12.4277
C -1.98451 8.72168 12.6576
C -3.23173 9.4408 14.614
C -2.19063 8.68585 14.0474
H -5.97158 15.5119 28.5915
H -4.67233 14.295 32.5016
H -2.90496 11.1539 20.1778
H -1.75542 9.75195 24.0641
H 0.477182 1.18098 3.43787
H -0.115263 5.11681 7.33112
H 2.3268 5.56424 11.7912
H -3.40251 9.39755 15.6805
N -4.19729 14.1227 27.202
N -6.50289 15.7988 31.213
N -2.66567 12.7277 31.6668
N -2.6957 12.7854 33.008
N -1.04716 9.8592 18.7735
N -3.5391 11.3069 22.7781
N -1.45462 13.5734 23.24
N -1.53923 13.5702 24.5802
N -7.09281 18.7933 35.6112
N 3.13352 6.69018 6.04886
N 1.93121 3.59993 6.49834
N 1.86377 3.60947 7.83937
N -0.828116 4.28372 10.4278
N 1.63153 5.66851 14.3877
N -1.3258 7.90295 14.8581
N -1.46157 7.82969 16.1917
O -2.49922 12.667 28.9171
O -4.44562 15.1943 26.5081
O -3.94284 13.0113 26.5756
O -6.66863 15.8455 32.5025
O -7.33367 16.4567 30.4604
O 0.507559 8.21691 20.5043
O -1.98595 10.3261 18.0023
O 0.0993794 9.56169 18.2353
O -3.74396 11.3046 24.0627
O -4.34534 11.9961 22.027
O 2.19126 3.66005 3.75543
O -5.5224 14.5633 34.9818
O -6.84245 17.7161 34.9262
O 2.92842 6.68626 7.33344
O 4.05402 2.01834 5.29722
O -1.00219 8.02676 12.1264
O -0.952114 5.42999 9.82566
O -0.567477 3.22273 9.72184
O 1.45491 5.71535 15.6749
O 0.81536 6.33683 13.6285
68
 Atoms. Timestep: 70900
C -4.30739 14.1733 28.6303
C -5.46852 14.9978 30.6174
C -5.30032 14.9647 29.2238
C -3.45437 13.4078 29.4496
C -4.60074 14.2401 31.421
C -3.58987 13.4522 30.8476
C -1.2226 9.79759 20.2085
C -2.44577 10.5502 22.1956
C -2.24532 10.5548 20.8057
C -0.398221 8.99875 21.0351
C -1.59303 9.77848 22.9989
C -0.570236 9.00617 22.4299
C 0.369023 5.13924 3.48082
C -0.842503 5.89813 5.46333
C -0.638282 5.91189 4.07415
C 1.19732 4.34204 4.29457
C 0.00459749 5.11337 6.26322
C 1.02936 4.34361 5.68959
C -1.05962 4.18388 11.8448
C 2.70322 4.89744 13.8126
C 2.94326 4.944 12.4299
C -1.98529 8.7211 12.6595
C -3.23015 9.4428 14.6164
C -2.18979 8.68698 14.0495
H -5.96063 15.5391 28.5867
H -4.70689 14.2659 32.4937
H -2.88492 11.1641 20.1813
H -1.72325 9.77745 24.0693
H 0.450641 1.15375 3.43915
H -0.129237 5.10311 7.33328
H 2.32389 5.56313 11.7933
H -3.39953 9.40109 15.6831
N -4.16817 14.1723 27.1993
N -6.52206 15.7889 31.206
N -2.68939 12.7121 31.6598
N -2.7308 12.7559 33.0012
N -1.03332 9.86188 18.7761
N -3.51059 11.3278 22.7826
N -1.42424 13.5959 23.2449
N -1.50276 13.6002 24.5854
N -7.12625 18.7607 35.6051
N 3.1142 6.67197 6.05123
N 1.9145 3.58313 6.49963
N 1.85133 3.59741 7.84072
N -0.831691 4.28053 10.4297
N 1.63149 5.67068 14.3902
N -1.32422 7.90482 14.8601
N -1.45904 7.83247 16.1938
O -2.49619 12.6849 28.9113
O -4.39407 15.2594 26.5218
O -3.91268 13.0703 26.5569
O -6.69849 15.8224 32.4943
O -7.3471 16.4538 30.4533
O 0.529649 8.22944 20.5089
O -1.97539 10.3251 18.0068
O 0.110187 9.55964 18.2342
O -3.71249 11.3295 24.0677
O -4.31851 12.0148 22.0314
O 2.16672 3.6344 3.75605
O -5.56203 14.5277 34.971
O -6.8764 17.6809 34.9241
O 2.91264 6.67222 7.3363
O 4.0327 1.99836 5.29969
O -1.0037 8.02547 12.1279
O -0.953086 5.42675 9.8269
O -0.576144 3.21788 9.72434
O 1.45615 5.7191 15.6774
O 0.814519 6.33803 13.631
68
 Atoms. Timestep: 80939
C -4.56532 14.2091 28.6023
C -5.75259 15.0149 30.5826
C -5.56218 15.0008 29.1909
C -3.73174 13.425 29.4245
C -4.90297 14.239 31.3884
C -3.88854 13.4518 30.8206
C -1.39352 9.81218 20.208
C -2.62405 10.5689 22.1898
C -2.41494 10.5759 20.8007
C -0.580049 9.0052 21.0379
C -1.78182 9.78846 22.9958
C -0.760587 9.0106 22.4317
C 0.358343 5.13645 3.52028
C -0.861717 5.89805 5.49783
C -0.647687 5.91561 4.1095
C 1.17567 4.33087 4.3375
C -0.0257662 5.10366 6.30003
C 0.99783 4.32887 5.7313
C -1.14733 4.17118 11.8642
C 2.57309 4.88565 13.8264
C 2.82416 4.93732 12.4452
C -2.07362 8.73423 12.6817
C -3.32876 9.45572 14.6318
C -2.28916 8.69522 14.07
H -6.20808 15.5895 28.5515
H -5.02575 14.2505 32.4599
H -3.04713 11.1907 20.1738
H -1.91902 9.78538 24.0657
H 0.437769 1.12889 3.47246
H -0.166978 5.09037 7.36936
H 2.21349 5.56378 11.807
H -3.5072 9.40963 15.6971
N -4.39938 14.2275 27.1743
N -6.80948 15.8052 31.1675
N -3.00404 12.697 31.637
N -3.06498 12.7256 32.978
N -1.19406 9.87676 18.7765
N -3.68738 11.3517 22.7739
N -1.61302 13.6286 23.2508
N -1.69986 13.632 24.5909
N -7.47987 18.7729 35.5561
N 3.06384 6.67667 6.08298
N 1.87273 3.56053 6.5452
N 1.79972 3.5712 7.88578
N -0.906849 4.27039 10.4511
N 1.50219 5.66296 14.4013
N -1.43484 7.90398 14.884
N -1.5812 7.82617 16.2162
O -2.77021 12.7025 28.8912
O -4.67493 15.329 26.5102
O -4.13558 13.1343 26.5204
O -7.00311 15.8234 32.454
O -7.62145 16.4834 30.4124
O 0.345438 8.2302 20.5151
O -2.12898 10.3456 18.0015
O -0.0493554 9.5653 18.2414
O -3.89732 11.35 24.058
O -4.487 12.0461 22.0204
O 2.14441 3.61857 3.80337
O -5.91472 14.5067 34.9226
O -7.22096 17.6946 34.8759
O 2.85394 6.67241 7.36704
O 3.97927 1.97537 5.32941
O -1.09277 8.03402 12.1542
O -1.01147 5.42007 9.85181
O -0.64514 3.20961 9.74516
O 1.31751 5.70464 15.6878
O 0.693814 6.33852 13.6401
68
 Atoms. Timestep: 90946
C -4.56974 14.2326 28.5989
C -5.77292 15.0086 30.5804
C -5.57086 15.0151 29.1908
C -3.74536 13.4334 29.415
C -4.92993 14.2214 31.3822
C -3.91122 13.4421 30.8104
C -1.40201 9.82932 20.2101
C -2.63697 10.5724 22.1938
C -2.42424 10.589 20.8057
C -0.592189 9.01494 21.036
C -1.79679 9.78677 22.997
C -0.774265 9.0128 22.4294
C 0.348898 5.12863 3.52017
C -0.873652 5.87843 5.49962
C -0.657673 5.90368 4.11219
C 1.1637 4.31677 4.33303
C -0.0386992 5.08026 6.29901
C 0.98542 4.30839 5.72673
C -1.13276 4.16403 11.8693
C 2.59358 4.88097 13.8323
C 2.84165 4.93032 12.451
C -2.05986 8.72508 12.6856
C -3.30995 9.4504 14.6379
C -2.27138 8.68925 14.0746
H -6.20917 15.6151 28.5544
H -5.06193 14.2169 32.4524
H -3.05335 11.2098 20.1818
H -1.93713 9.77556 24.0662
H 0.431927 1.12397 3.47742
H -0.181539 5.06116 7.36777
H 2.23086 5.55679 11.8131
H -3.48658 9.40575 15.7033
N -4.3873 14.2809 27.1742
N -6.83388 15.7917 31.1668
N -3.0302 12.6791 31.6226
N -3.0933 12.6981 32.9637
N -1.19574 9.90886 18.7807
N -3.70118 11.3523 22.7793
N -1.62771 13.6257 23.2448
N -1.70769 13.6303 24.5852
N -7.48795 18.7798 35.5528
N 3.05272 6.65445 6.08611
N 1.86073 3.53722 6.53735
N 1.79035 3.54519 7.87816
N -0.893965 4.2654 10.4564
N 1.52432 5.66006 14.4067
N -1.41409 7.90105 14.8884
N -1.55169 7.83378 16.2221
O -2.78175 12.7164 28.8781
O -2.8353 10.0105 26.5338
O -4.13546 13.1981 26.4989
O -7.03292 15.7999 32.4523
O -7.64332 16.4746 30.4133
O 0.332759 8.24162 20.5101
O -2.12322 10.3933 18.0063
O -0.0485073 9.60152 18.2488
O -3.91038 11.3487 24.0633
O -4.50161 12.0469 22.0271
O 2.13164 3.60595 3.79563
O -5.90945 14.5238 34.9314
O -7.24039 17.706 34.8617
O 2.84363 6.64859 7.3701
O 3.96913 1.95575 5.33373
O -1.08095 8.02347 12.1567
O -0.996101 5.41625 9.85968
O -0.641355 3.20453 9.74748
O 1.34567 5.71007 15.6935
O 0.712842 6.33111 13.6451
68
 Atoms. Timestep: 100000
C -4.569 14.2365 28.5981
C -5.77614 15.0073 30.5791
C -5.57123 15.0174 29.1897
C -3.74668 13.4349 29.414
C -4.93488 14.218 31.3808
C -3.91515 13.4402 30.8091
C -1.39796 9.83262 20.2112
C -2.63275 10.5754 22.1952
C -2.42012 10.5921 20.8068
C -0.588124 9.01829 21.0373
C -1.79261 9.78975 22.9985
C -0.770124 9.016 22.4308
C 0.342939 5.12202 3.51919
C -0.878245 5.87267 5.49916
C -0.663209 5.89723 4.11141
C 1.15828 4.31073 4.33225
C -0.042833 5.07499 6.29869
C 0.980898 4.303 5.72623
C -1.13102 4.16516 11.8695
C 2.59636 4.88294 13.8328
C 2.84377 4.93165 12.4512
C -2.05778 8.72671 12.6861
C -3.30685 9.45283 14.6387
C -2.2686 8.69151 14.0754
H -6.20792 15.6192 28.5534
H -5.06901 14.2107 32.4509
H -3.04919 11.2129 20.1827
H -1.93296 9.77834 24.0678
H 0.426008 1.11708 3.47649
H -0.184993 5.05634 7.36766
H 2.23282 5.55775 11.8129
H -3.48296 9.40868 15.7044
N -4.38283 14.2894 27.1738
N -6.83804 15.7889 31.1653
N -3.03548 12.6756 31.6216
N -3.10074 12.6919 32.9627
N -1.19175 9.91238 18.7817
N -3.69683 11.3552 22.7807
N -1.62347 13.629 23.2464
N -1.70293 13.634 24.5869
N -7.49494 18.7725 35.5515
N 3.04858 6.64892 6.08588
N 1.85669 3.53232 6.53697
N 1.78746 3.54128 7.87793
N -0.892878 4.2659 10.4563
N 1.52745 5.66225 14.4072
N -1.41099 7.90375 14.8894
N -1.54804 7.83696 16.2234
O -2.78221 12.7192 28.8771
O -2.82585 10.0223 26.5368
O -4.13135 13.208 26.4956
O -7.03902 15.7946 32.4507
O -7.64627 16.4732 30.4117
O 0.336848 8.24517 20.5114
O -2.11922 10.3964 18.007
O -0.0445525 9.60583 18.2497
O -3.90595 11.3515 24.0648
O -4.49718 12.0498 22.0283
O 2.12589 3.59982 3.79464
O -5.91724 14.5165 34.9292
O -7.24778 17.698 34.861
O 2.84043 6.64386 7.37013
O 3.96461 1.94976 5.33337
O -1.0792 8.02498 12.1571
O -0.993116 5.41729 9.85923
O -0.642952 3.20396 9.7476
O 1.34941 5.71303 15.6941
O 0.715769 6.33287 13.6453
68
 Atoms. Timestep: 100955
C -4.57265 14.2374 28.5977
C -5.78043 15.008 30.5787
C -5.57523 15.0181 29.1893
C -3.75023 13.4359 29.4136
C -4.93904 14.2189 31.3803
C -3.91896 13.4413 30.8087
C -1.40002 9.83351 20.2113
C -2.63521 10.5763 22.1952
C -2.42246 10.5929 20.8068
C -0.589976 9.01948 21.0373
C -1.79483 9.79101 22.9985
C -0.77206 9.0174 22.4308
C 0.341523 5.12109 3.51972
C -0.879948 5.87196 5.49964
C -0.66487 5.89622 4.11189
C 1.15714 4.31017 4.33273
C -0.0442522 5.07461 6.29916
C 0.979732 4.30272 5.7267
C -1.13245 4.16614 11.8698
C 2.59563 4.8841 13.8331
C 2.84312 4.93255 12.4515
C -2.05978 8.72672 12.6864
C -3.30917 9.453 14.6389
C -2.27066 8.69178 14.0757
H -6.21199 15.6198 28.553
H -5.07338 14.2116 32.4504
H -3.05171 11.2134 20.1828
H -1.93525 9.77975 24.0677
H 0.424954 1.11712 3.47701
H -0.186431 5.05618 7.3681
H 2.23198 5.55838 11.8132
H -3.48532 9.40905 15.7046
N -4.38617 14.2903 27.1736
N -6.84268 15.7894 31.1648
N -3.03919 12.6769 31.621
N -3.10462 12.6931 32.9622
N -1.1937 9.91305 18.7817
N -3.69956 11.356 22.7806
N -1.62601 13.6294 23.2463
N -1.70549 13.6346 24.5869
N -7.50043 18.7724 35.5509
N 3.04767 6.64811 6.08632
N 1.85577 3.5324 6.53737
N 1.78658 3.5416 7.87838
N -0.894278 4.26657 10.4567
N 1.52646 5.6633 14.4074
N -1.41282 7.90437 14.8896
N -1.54988 7.83778 16.2236
O -2.78547 12.7205 28.8768
O -2.82824 10.0245 26.5367
O -4.13448 13.2092 26.4952
O -7.04389 15.7951 32.4502
O -2.65764 16.4735 30.4112
O 0.335241 8.24652 20.5115
O -2.12136 10.3968 18.0072
O -0.0463902 9.60653 18.2498
O -3.90878 11.3525 24.0648
O -4.5001 12.0503 22.0282
O 2.12496 3.59938 3.79516
O -5.9222 14.5174 34.9284
O -7.25304 17.6979 34.8604
O 2.83949 6.6433 7.37062
O 3.96429 1.94995 5.33384
O -1.08099 8.02512 12.1574
O -0.99457 5.41774 9.85949
O -0.644291 3.20472 9.74796
O 1.34837 5.7143 15.6943
O 0.714566 6.33362 13.6455
68
 Atoms. Timestep: 110963
C -4.57571 14.2398 28.5966
C -5.7856 15.0081 30.577
C -5.57912 15.0196 29.188
C -3.75388 13.4376 29.4123
C -4.94466 14.2184 31.3786
C -3.92381 13.4417 30.8072
C -1.4002 9.83597 20.2118
C -2.63556 10.5788 22.1955
C -2.4229 10.5951 20.8072
C -0.589778 9.0224 21.0378
C -1.79484 9.79391 22.9988
C -0.771788 9.02051 22.4313
C 0.337474 5.11721 3.5208
C -0.883636 5.86866 5.50067
C -0.669036 5.89229 4.11292
C 1.15371 4.30698 4.33388
C -0.0473756 5.07194 6.30023
C 0.976741 4.3001 5.72783
C -1.13348 4.16769 11.8706
C 2.59634 4.886 13.8337
C 2.84356 4.93401 12.4521
C -2.0611 8.72733 12.6873
C -3.3104 9.45395 14.6397
C -2.27169 8.69282 14.0765
H -6.21541 15.6218 28.5517
H -5.07995 14.2101 32.4485
H -3.05242 11.2154 20.1831
H -1.93521 9.7828 24.0681
H 0.421059 1.11415 3.478
H -0.189207 5.05394 7.36916
H 2.23212 5.55943 11.8138
H -3.48633 9.41035 15.7053
N -4.38758 14.2945 27.1728
N -6.8486 15.7887 31.1629
N -3.04434 12.6769 31.6195
N -3.11088 12.6919 32.9606
N -1.19398 9.91527 18.7823
N -3.70016 11.3584 22.7808
N -1.6261 13.6314 23.2468
N -1.70543 13.6369 24.5873
N -7.50874 18.7689 35.5489
N 3.04554 6.64482 6.0873
N 1.85334 3.53038 6.53849
N 1.78464 3.54018 7.87945
N -0.895561 4.26769 10.4575
N 1.52698 5.66513 14.4079
N -1.4134 7.90593 14.8905
N -1.5502 7.83973 16.2245
O -2.78842 12.7229 28.8757
O -2.8271 10.031 26.5374
O -4.13562 13.2142 26.4933
O -7.05068 15.7935 32.4481
O -2.66166 16.4732 30.4093
O 0.335739 8.24965 20.5121
O -2.12202 10.3983 18.0077
O -0.0463744 9.60918 18.2505
O -3.90932 11.3551 24.0649
O -4.50097 12.0524 22.0284
O 2.12168 3.59627 3.79636
O -5.93063 14.5149 34.926
O -7.26104 17.6943 34.859
O 2.83784 6.64067 7.37161
O 3.96239 1.94759 5.33482
O -1.08212 8.02584 12.1582
O -0.995123 5.41874 9.86023
O -0.646537 3.20555 9.74897
O 1.34908 5.71652 15.6947
O 0.71473 6.33501 13.646
68
 Atoms. Timestep: 121003
C -4.82718 14.1584 28.5747
C -6.05429 14.9153 30.5489
C -5.83676 14.9342 29.1613
C -4.01035 13.3547 29.3933
C -5.21791 14.1235 31.3536
C -4.19113 13.3516 30.7865
C -1.5666 9.78421 20.2096
C -2.81854 10.5164 22.187
C -2.59569 10.539 20.8003
C -0.761086 8.96893 21.0389
C -1.982 9.72997 22.9937
C -0.953184 8.96102 22.4307
C 0.322111 5.11248 3.55641
C -0.91486 5.85402 5.53018
C -0.690134 5.88407 4.14381
C 1.13398 4.30137 4.37245
C -0.0826553 5.05569 6.33271
C 0.947022 4.28835 5.76474
C -1.22973 4.14648 11.8874
C 2.50102 4.855 13.8439
C 2.75838 4.90954 12.464
C -2.16216 8.69497 12.7069
C -3.42698 9.41081 14.6525
C -2.38272 8.65427 14.0941
H -6.46903 15.5386 28.5226
H -5.3611 14.1094 32.4224
H -3.22152 11.1606 20.1736
H -2.13003 9.71395 24.0616
H 0.403831 1.1178 3.50657
H -0.231698 5.03272 7.4006
H 2.15061 5.53672 11.8235
H -3.61068 9.36175 15.7165
N -4.62723 14.2184 27.1528
N -7.12297 15.6911 31.131
N -3.31594 12.5848 31.602
N -3.39354 12.5922 32.9425
N -1.34835 9.86996 18.7825
N -3.8886 11.2914 22.7683
N -1.81224 13.5601 23.2496
N -1.90219 13.5591 24.5894
N -7.83456 18.6595 35.5095
N 3.02558 6.62575 6.11315
N 1.81977 3.51715 6.57855
N 1.7408 3.52018 7.91893
N -0.981185 4.25047 10.4764
N 1.42645 5.62966 14.4147
N -1.52832 7.86563 14.9109
N -1.67528 7.79151 16.2433
O -3.03889 12.645 28.8612
O -3.054 9.96916 26.522
O -4.36382 13.1417 26.4716
O -7.33366 15.6894 32.4148
O -2.91543 16.3781 30.3753
O 0.169724 8.20011 20.5168
O -2.27143 10.3522 18.0014
O -0.195676 9.56706 18.2591
O -4.10585 11.2825 24.0509
O -4.6854 11.9876 22.0137
O 2.10764 3.59533 3.8394
O -6.24485 14.4189 34.8905
O -7.57521 17.588 34.8188
O 2.81 6.61583 7.39611
O 3.94633 1.94084 5.3586
O -1.1777 7.99793 12.1826
O -1.06809 5.40472 9.88393
O -0.720524 3.19131 9.76728
O 1.24015 5.67469 15.7007
O 0.617896 6.30166 13.6505
68
 Atoms. Timestep: 131011
C -4.84244 14.1661 28.5735
C -6.07783 14.9093 30.5481
C -5.85478 14.9368 29.1615
C -4.02965 13.3556 29.3892
C -5.24442 14.1126 31.3506
C -4.21525 13.3444 30.782
C -1.58089 9.79455 20.2123
C -2.84053 10.5138 22.1899
C -2.61259 10.5446 20.804
C -0.779235 8.97318 21.0383
C -2.00659 9.72277 22.9943
C -0.975696 8.95747 22.4296
C 0.321925 5.11173 3.5566
C -0.920449 5.84358 5.53091
C -0.69233 5.87927 4.14529
C 1.1312 4.2958 4.37021
C -0.0899424 5.04215 6.33173
C 0.941252 4.27729 5.76222
C -1.22312 4.14413 11.8886
C 2.50934 4.8518 13.8463
C 2.76565 4.9057 12.4663
C -2.15458 8.69092 12.7069
C -3.41827 9.40699 14.6542
C -2.37385 8.65087 14.0946
H -6.48363 15.5456 28.5244
H -5.39251 14.0919 32.4188
H -3.23563 11.1706 20.1794
H -2.15895 9.70025 24.062
H 0.403439 1.11696 3.5093
H -0.242113 5.01502 7.39923
H 2.15782 5.53275 11.8264
H -3.60195 9.35815 15.7185
N -4.63307 14.2416 27.1538
N -7.1485 15.6822 31.1307
N -3.34188 12.5742 31.5956
N -3.42233 12.5763 32.936
N -1.35396 9.89319 18.7873
N -3.9122 11.2863 22.772
N -1.83523 13.5525 23.2462
N -1.92608 13.5477 24.5859
N -7.84659 18.6703 35.5076
N 3.01956 6.61344 6.11426
N 1.81292 3.50374 6.57449
N 1.7315 3.50242 7.91473
N -0.973258 4.25272 10.4781
N 1.43532 5.62725 14.4171
N -1.51796 7.86392 14.911
N -1.6602 7.79637 16.2444
O -3.05661 12.6492 28.8555
O -3.0491 10.0018 26.5349
O -4.37624 13.1704 26.4617
O -7.3623 15.6765 32.414
O -2.93835 16.3717 30.3753
O 0.152835 8.20727 20.5142
O -2.2738 10.379 18.0047
O -0.194855 9.60669 18.2701
O -4.13171 11.2743 24.0544
O -4.70777 11.9848 22.0179
O 2.10581 3.59205 3.83564
O -6.25038 14.4367 34.8975
O -7.59297 17.6029 34.8084
O 2.80217 6.6015 7.39696
O 3.94096 1.93108 5.35987
O -1.17039 7.99439 12.1812
O -1.06043 5.40876 9.88862
O -0.718564 3.19471 9.76518
O 1.25119 5.67606 15.7033
O 0.626043 6.29811 13.6527
68
 Atoms. Timestep: 141031
C -4.86246 14.1631 28.5711
C -6.09964 14.9043 30.5451
C -5.87534 14.9332 29.1588
C -4.05052 13.3516 29.3868
C -5.26694 14.1068 31.3476
C -4.23724 13.3391 30.7794
C -1.5936 9.79458 20.2124
C -2.85561 10.5111 22.1893
C -2.62602 10.5438 20.8037
C -0.793065 8.97184 21.0384
C -2.02261 9.71895 22.9937
C -0.991025 8.95431 22.4293
C 0.320428 5.11028 3.55967
C -0.92281 5.84129 5.53358
C -0.694115 5.87757 4.14814
C 1.12931 4.29398 4.3734
C -0.0926247 5.03949 6.33447
C 0.938856 4.27482 5.76529
C -1.22714 4.14421 11.8905
C 2.50525 4.85183 13.8479
C 2.76175 4.9058 12.468
C -2.15821 8.69081 12.709
C -3.42217 9.40676 14.656
C -2.3776 8.65066 14.0967
H -6.50352 15.5427 28.5215