units           real
atom_style      full
boundary        p p p

pair_style      lj/cut 12.500
bond_style      harmonic
angle_style     cosine/periodic
dihedral_style  harmonic
improper_style  fourier

special_bonds   lj/coul 0.0 0.0 1.0
pair_modify     tail yes mix arithmetic
dielectric      1.0
box tilt        large
read_data   all_input_data
Reading data file ...
  triclinic box = (0 0 0) to (8.9246 5.337407 30.744697) with tilt (0.347491 -12.161305 -3.414799)
WARNING: Triclinic box skew is large (src/domain.cpp:224)
  2 by 1 by 10 MPI processor grid
  reading atoms ...
  68 atoms
  scanning bonds ...
  3 = max bonds/atom
  scanning angles ...
  3 = max angles/atom
  scanning dihedrals ...
  12 = max dihedrals/atom
  scanning impropers ...
  3 = max impropers/atom
  reading bonds ...
  68 bonds
  reading angles ...
  100 angles
  reading dihedrals ...
  136 dihedrals
  reading impropers ...
  96 impropers
Finding 1-2 1-3 1-4 neighbors ...
  special bond factors lj:    0        0        1       
  special bond factors coul:  0        0        1       
     3 = max # of 1-2 neighbors
     6 = max # of 1-3 neighbors
     9 = max # of special neighbors
  special bonds CPU = 0.001 seconds
  read_data CPU = 0.008 seconds

#### Atom Groupings ####
group           1        id   1:68
68 atoms in group 1
group           1-1      id   1:6 25:26 33:36 49:53
17 atoms in group 1-1
group           1-2      id   7:12 27:28 37:40 54:58
17 atoms in group 1-2
group           1-3      id   13:18 29:30 41:44 59:63
17 atoms in group 1-3
group           1-4      id   19:24 31:32 45:48 64:68
17 atoms in group 1-4
#### END Atom Groupings ####

dump           structure_xyzmov 1 xyz 100000 structure_mov.xyz
dump_modify    structure_xyzmov element C H N O
min_style       cg
print           "MinStep,CellMinStep,AtomMinStep,FinalStep,Energy,EDiff" file p1_structure.min.csv screen no
variable        min_eval   equal 1.00e-06
variable        prev_E     equal 50000.00
variable        iter       loop 100000
label           loop_min
min_style       cg
fix             1 all box/relax tri 50000 vmax 0.05
minimize        1.0e-15 1.0e-15 10000 100000
WARNING: Using 'neigh_modify every 1 delay 0 check yes' setting during minimization (src/min.cpp:187)
----------------------------------------------------------
Using INTEL Package without Coprocessor.
Compiler: Intel LLVM C++ 202202.0 / Intel(R) oneAPI DPC++/C++ Compiler 2022.2.1 (2022.2.1.20221020)
SIMD compiler directives: Enabled
Precision: mixed
----------------------------------------------------------
Generated 6 of 6 mixed pair_coeff terms from arithmetic mixing rule
Neighbor list info ...
  update every 1 steps, delay 0 steps, check yes
  max neighbors/atom: 2000, page size: 100000
  master list distance cutoff = 14.5
  ghost atom cutoff = 14.5
  binsize = 7.25, bins = 3 2 5
  1 neighbor lists, perpetual/occasional/extra = 1 0 0
  (1) pair lj/cut/intel, perpetual
      attributes: half, newton on, intel
      pair build: half/bin/newton/tri/intel
      stencil: half/bin/3d/tri
      bin: intel
WARNING: Bond/angle/dihedral extent > half of periodic box length (src/domain.cpp:940)
Per MPI rank memory allocation (min/avg/max) = 15.5 | 15.8 | 16.35 Mbytes
   Step          Temp          E_pair         E_mol          TotEng         Press          Volume    
         0   0              1017991.4      630.95265      1018622.3      1.9080253e+08  1464.4997    
        36   0              174.20028      176.53804      350.73832      61327.091      1359.4068    
WARNING: Bond/angle/dihedral extent > half of periodic box length (src/domain.cpp:940)
Loop time of 0.0358694 on 40 procs for 36 steps with 68 atoms

90.5% CPU use with 20 MPI tasks x 2 OpenMP threads

Minimization stats:
  Stopping criterion = linesearch alpha is zero
  Energy initial, next-to-last, final = 
      1018622.32252474   221.348395972725   274.104659795908
  Force two-norm initial, final = 18327972 941.76993
  Force max component initial, final = 9154316.7 576.77037
  Final line search alpha, max atom move = 2.2781225e-14 1.3139536e-11
  Iterations, force evaluations = 36 104

MPI task timing breakdown:
Section |  min time  |  avg time  |  max time  |%varavg| %total
---------------------------------------------------------------
Pair    | 0.00029145 | 0.0047618  | 0.0064589  |   2.3 | 13.28
Bond    | 2.6606e-05 | 0.0021828  | 0.0050488  |   4.2 |  6.09
Neigh   | 0.0040219  | 0.0041471  | 0.0043485  |   0.1 | 11.56
Comm    | 0.010169   | 0.014739   | 0.021263   |   2.6 | 41.09
Output  | 0          | 0          | 0          |   0.0 |  0.00
Modify  | 9.384e-06  | 0.00071448 | 0.0010693  |   0.0 |  1.99
Other   |            | 0.009324   |            |       | 25.99

Nlocal:            3.4 ave           8 max           0 min
Histogram: 2 2 3 4 0 3 3 1 1 1
Nghost:         2168.6 ave        2221 max        2145 min
Histogram: 6 6 0 0 2 4 0 0 1 1
Neighs:        1160.85 ave        3234 max           0 min
Histogram: 4 1 4 4 1 2 2 1 0 1

Total # of neighbors = 23217
Ave neighs/atom = 341.42647
Ave special neighs/atom = 4.9411765
Neighbor list builds = 29
Dangerous builds = 13
unfix           1
min_style       fire
variable        tempstp    equal $(step)
variable        tempstp    equal 36
variable        CellMinStep equal ${tempstp}
variable        CellMinStep equal 36
minimize        1.0e-15 1.0e-15 10000 100000
WARNING: Using 'neigh_modify every 1 delay 0 check yes' setting during minimization (src/min.cpp:187)
----------------------------------------------------------
Using INTEL Package without Coprocessor.
Compiler: Intel LLVM C++ 202202.0 / Intel(R) oneAPI DPC++/C++ Compiler 2022.2.1 (2022.2.1.20221020)
SIMD compiler directives: Enabled
Precision: mixed
----------------------------------------------------------
Generated 6 of 6 mixed pair_coeff terms from arithmetic mixing rule
  Parameters for fire: 
    dmax delaystep dtgrow dtshrink alpha0 alphashrink tmax tmin    integrator halfstepback 
     0.1        20    1.1      0.5   0.25        0.99   10 0.02 eulerimplicit          yes 
WARNING: Bond/angle/dihedral extent > half of periodic box length (src/domain.cpp:940)
Per MPI rank memory allocation (min/avg/max) = 14.45 | 14.76 | 15.28 Mbytes
   Step          Temp          E_pair         E_mol          TotEng         Press     
        36   0              174.20028      176.53804      350.73832      61327.091    
     10036   0.0022856962   37.314962      24.422236      61.737655     -2437.1757    
WARNING: Bond/angle/dihedral extent > half of periodic box length (src/domain.cpp:940)
Loop time of 1.78925 on 40 procs for 10000 steps with 68 atoms

92.0% CPU use with 20 MPI tasks x 2 OpenMP threads

Minimization stats:
  Stopping criterion = max iterations
  Energy initial, next-to-last, final = 
      350.738324248827   61.7372040962832   61.7371980988266
  Force two-norm initial, final = 710.66215 0.82906242
  Force max component initial, final = 333.0872 0.17206805
  Final line search alpha, max atom move = 0 0
  Iterations, force evaluations = 10000 10534

MPI task timing breakdown:
Section |  min time  |  avg time  |  max time  |%varavg| %total
---------------------------------------------------------------
Pair    | 0.040787   | 0.34738    | 0.44205    |  16.7 | 19.42
Bond    | 0.0016922  | 0.25681    | 0.42544    |  30.5 | 14.35
Neigh   | 0.0016597  | 0.001861   | 0.0019146  |   0.1 |  0.10
Comm    | 0.64991    | 0.91544    | 1.4907     |  24.9 | 51.16
Output  | 4.0492e-05 | 4.1094e-05 | 4.6864e-05 |   0.0 |  0.00
Modify  | 0.00089447 | 0.095264   | 0.11404    |   8.4 |  5.32
Other   |            | 0.1724     |            |       |  9.64

Nlocal:            3.4 ave           7 max           0 min
Histogram: 2 2 3 0 2 4 0 5 1 1
Nghost:         2159.4 ave        2190 max        2123 min
Histogram: 4 0 0 0 5 5 0 0 1 5
Neighs:         1088.5 ave        2471 max           0 min
Histogram: 3 2 2 2 2 3 2 2 1 1

Total # of neighbors = 21770
Ave neighs/atom = 320.14706
Ave special neighs/atom = 4.9411765
Neighbor list builds = 5
Dangerous builds = 0
variable        AtomMinStep equal $(step)
variable        AtomMinStep equal 10036
variable        temppe     equal $(pe)
variable        temppe     equal 61.737198098826574721
variable        min_E      equal abs(${prev_E}-${temppe})
variable        min_E      equal abs(50000-${temppe})
variable        min_E      equal abs(50000-61.7371980988266)
print           "${iter},${CellMinStep},${AtomMinStep},${AtomMinStep},$(pe),${min_E}" append p1_structure.min.csv screen no
if              "${min_E} < ${min_eval}" then "jump SELF break_min"
variable        prev_E     equal ${temppe}
variable        prev_E     equal 61.7371980988266
next            iter
jump            SELF loop_min
min_style       cg
fix             1 all box/relax tri 50000 vmax 0.05
minimize        1.0e-15 1.0e-15 10000 100000
WARNING: Using 'neigh_modify every 1 delay 0 check yes' setting during minimization (src/min.cpp:187)
----------------------------------------------------------
Using INTEL Package without Coprocessor.
Compiler: Intel LLVM C++ 202202.0 / Intel(R) oneAPI DPC++/C++ Compiler 2022.2.1 (2022.2.1.20221020)
SIMD compiler directives: Enabled
Precision: mixed
----------------------------------------------------------
Generated 6 of 6 mixed pair_coeff terms from arithmetic mixing rule
WARNING: Bond/angle/dihedral extent > half of periodic box length (src/domain.cpp:940)
Per MPI rank memory allocation (min/avg/max) = 15.57 | 16.01 | 16.42 Mbytes
   Step          Temp          E_pair         E_mol          TotEng         Press          Volume    
     10036   0.0022856962   37.314962      24.427219      61.742637     -2437.1725      1359.4068    
     10057   0.0022856962   92.79475       32.714452      125.50966      47038.968      1016.3188    
WARNING: Bond/angle/dihedral extent > half of periodic box length (src/domain.cpp:940)
Loop time of 0.0397024 on 40 procs for 21 steps with 68 atoms

91.2% CPU use with 20 MPI tasks x 2 OpenMP threads

Minimization stats:
  Stopping criterion = linesearch alpha is zero
  Energy initial, next-to-last, final = 
      61.7421807323146   -136.58146367429  -124.670067500696
  Force two-norm initial, final = 1800.9252 390.40893
  Force max component initial, final = 1053.3558 242.92045
  Final line search alpha, max atom move = 6.4041583e-14 1.555701e-11
  Iterations, force evaluations = 21 102

MPI task timing breakdown:
Section |  min time  |  avg time  |  max time  |%varavg| %total
---------------------------------------------------------------
Pair    | 0.00042798 | 0.005361   | 0.0074154  |   3.0 | 13.50
Bond    | 2.6746e-05 | 0.0029104  | 0.0051882  |   3.6 |  7.33
Neigh   | 0.0049934  | 0.0052203  | 0.0055886  |   0.2 | 13.15
Comm    | 0.010796   | 0.015175   | 0.024613   |   3.4 | 38.22
Output  | 0          | 0          | 0          |   0.0 |  0.00
Modify  | 9.568e-06  | 0.0011159  | 0.0015707  |   1.6 |  2.81
Other   |            | 0.00992    |            |       | 24.99

Nlocal:            3.4 ave           7 max           0 min
Histogram: 3 2 0 0 5 4 0 2 3 1
Nghost:         3006.1 ave        3059 max        2935 min
Histogram: 2 0 0 5 1 1 3 4 0 4
Neighs:        1460.65 ave        3433 max           0 min
Histogram: 4 1 0 2 7 2 0 2 1 1

Total # of neighbors = 29213
Ave neighs/atom = 429.60294
Ave special neighs/atom = 4.9411765
Neighbor list builds = 24
Dangerous builds = 12
unfix           1
min_style       fire
variable        tempstp    equal $(step)
variable        tempstp    equal 10057
variable        CellMinStep equal ${tempstp}
variable        CellMinStep equal 10057
minimize        1.0e-15 1.0e-15 10000 100000
WARNING: Using 'neigh_modify every 1 delay 0 check yes' setting during minimization (src/min.cpp:187)
----------------------------------------------------------
Using INTEL Package without Coprocessor.
Compiler: Intel LLVM C++ 202202.0 / Intel(R) oneAPI DPC++/C++ Compiler 2022.2.1 (2022.2.1.20221020)
SIMD compiler directives: Enabled
Precision: mixed
----------------------------------------------------------
Generated 6 of 6 mixed pair_coeff terms from arithmetic mixing rule
  Parameters for fire: 
    dmax delaystep dtgrow dtshrink alpha0 alphashrink tmax tmin    integrator halfstepback 
     0.1        20    1.1      0.5   0.25        0.99   10 0.02 eulerimplicit          yes 
WARNING: Bond/angle/dihedral extent > half of periodic box length (src/domain.cpp:940)
Per MPI rank memory allocation (min/avg/max) = 14.55 | 15.01 | 15.39 Mbytes
   Step          Temp          E_pair         E_mol          TotEng         Press     
     10057   0              92.79475       32.714452      125.5092       47038.948    
     20057   0.0013916971   23.063981      22.234195      45.298455     -1331.2359    
WARNING: Bond/angle/dihedral extent > half of periodic box length (src/domain.cpp:940)
Loop time of 2.00828 on 40 procs for 10000 steps with 68 atoms

95.1% CPU use with 20 MPI tasks x 2 OpenMP threads

Minimization stats:
  Stopping criterion = max iterations
  Energy initial, next-to-last, final = 
      125.509202239703   45.2983967694907   45.2981766144096
  Force two-norm initial, final = 288.78874 0.25448299
  Force max component initial, final = 132.28056 0.05489094
  Final line search alpha, max atom move = 0 0
  Iterations, force evaluations = 10000 10531

MPI task timing breakdown:
Section |  min time  |  avg time  |  max time  |%varavg| %total
---------------------------------------------------------------
Pair    | 0.053099   | 0.39935    | 0.52252    |  14.7 | 19.89
Bond    | 0.001724   | 0.23714    | 0.43728    |  32.8 | 11.81
Neigh   | 0.00032537 | 0.00039379 | 0.00041069 |   0.0 |  0.02
Comm    | 0.74305    | 1.053      | 1.704      |  23.2 | 52.43
Output  | 3.1131e-05 | 3.183e-05  | 3.647e-05  |   0.0 |  0.00
Modify  | 0.00082002 | 0.13406    | 0.15255    |   8.6 |  6.68
Other   |            | 0.1843     |            |       |  9.18

Nlocal:            3.4 ave           7 max           0 min
Histogram: 1 0 6 0 6 2 0 2 1 2
Nghost:        2948.65 ave        2989 max        2875 min
Histogram: 3 1 0 0 2 0 2 6 0 6
Neighs:         1451.9 ave        3200 max           0 min
Histogram: 1 0 5 2 7 1 0 2 0 2

Total # of neighbors = 29038
Ave neighs/atom = 427.02941
Ave special neighs/atom = 4.9411765
Neighbor list builds = 2
Dangerous builds = 0
variable        AtomMinStep equal $(step)
variable        AtomMinStep equal 20057
variable        temppe     equal $(pe)
variable        temppe     equal 45.298176614409619845
variable        min_E      equal abs(${prev_E}-${temppe})
variable        min_E      equal abs(61.7371980988266-${temppe})
variable        min_E      equal abs(61.7371980988266-45.2981766144096)
print           "${iter},${CellMinStep},${AtomMinStep},${AtomMinStep},$(pe),${min_E}" append p1_structure.min.csv screen no
if              "${min_E} < ${min_eval}" then "jump SELF break_min"
variable        prev_E     equal ${temppe}
variable        prev_E     equal 45.2981766144096
next            iter
jump            SELF loop_min
min_style       cg
fix             1 all box/relax tri 50000 vmax 0.05
minimize        1.0e-15 1.0e-15 10000 100000
WARNING: Using 'neigh_modify every 1 delay 0 check yes' setting during minimization (src/min.cpp:187)
----------------------------------------------------------
Using INTEL Package without Coprocessor.
Compiler: Intel LLVM C++ 202202.0 / Intel(R) oneAPI DPC++/C++ Compiler 2022.2.1 (2022.2.1.20221020)
SIMD compiler directives: Enabled
Precision: mixed
----------------------------------------------------------
Generated 6 of 6 mixed pair_coeff terms from arithmetic mixing rule
WARNING: Bond/angle/dihedral extent > half of periodic box length (src/domain.cpp:940)
Per MPI rank memory allocation (min/avg/max) = 15.81 | 16.14 | 16.52 Mbytes
   Step          Temp          E_pair         E_mol          TotEng         Press          Volume    
     20057   0.0013916971   23.063976      22.781439      45.845693     -1331.233       1016.3188    
     20078   0.0013916971   76.144017      69.017349      145.16164      50692.389      851.25081    
WARNING: Bond/angle/dihedral extent > half of periodic box length (src/domain.cpp:940)
Loop time of 0.0459217 on 40 procs for 21 steps with 68 atoms

98.4% CPU use with 20 MPI tasks x 2 OpenMP threads

Minimization stats:
  Stopping criterion = linesearch alpha is zero
  Energy initial, next-to-last, final = 
      45.8454149959409  -31.7918137411563   24.7939737657512
  Force two-norm initial, final = 1319.1801 706.04479
  Force max component initial, final = 771.26763 512.50458
  Final line search alpha, max atom move = 1.7545363e-13 8.9920788e-11
  Iterations, force evaluations = 21 109

MPI task timing breakdown:
Section |  min time  |  avg time  |  max time  |%varavg| %total
---------------------------------------------------------------
Pair    | 0.0064876  | 0.007415   | 0.0088351  |   0.8 | 16.15
Bond    | 4.6339e-05 | 0.0033695  | 0.0058949  |   3.4 |  7.34
Neigh   | 0.0068801  | 0.0071534  | 0.0074521  |   0.2 | 15.58
Comm    | 0.012585   | 0.016929   | 0.022327   |   2.2 | 36.87
Output  | 0          | 0          | 0          |   0.0 |  0.00
Modify  | 0.00068809 | 0.0015835  | 0.0020298  |   1.1 |  3.45
Other   |            | 0.009471   |            |       | 20.62

Nlocal:            3.4 ave           7 max           1 min
Histogram: 3 2 0 6 0 6 0 0 2 1
Nghost:        3399.55 ave        3492 max        3361 min
Histogram: 6 6 0 1 2 2 1 1 0 1
Neighs:         1744.1 ave        3860 max         448 min
Histogram: 3 1 3 5 4 1 0 1 1 1

Total # of neighbors = 34882
Ave neighs/atom = 512.97059
Ave special neighs/atom = 4.9411765
Neighbor list builds = 30
Dangerous builds = 10
unfix           1
min_style       fire
variable        tempstp    equal $(step)
variable        tempstp    equal 20078
variable        CellMinStep equal ${tempstp}
variable        CellMinStep equal 20078
minimize        1.0e-15 1.0e-15 10000 100000
WARNING: Using 'neigh_modify every 1 delay 0 check yes' setting during minimization (src/min.cpp:187)
----------------------------------------------------------
Using INTEL Package without Coprocessor.
Compiler: Intel LLVM C++ 202202.0 / Intel(R) oneAPI DPC++/C++ Compiler 2022.2.1 (2022.2.1.20221020)
SIMD compiler directives: Enabled
Precision: mixed
----------------------------------------------------------
Generated 6 of 6 mixed pair_coeff terms from arithmetic mixing rule
  Parameters for fire: 
    dmax delaystep dtgrow dtshrink alpha0 alphashrink tmax tmin    integrator halfstepback 
     0.1        20    1.1      0.5   0.25        0.99   10 0.02 eulerimplicit          yes 
WARNING: Bond/angle/dihedral extent > half of periodic box length (src/domain.cpp:940)
Per MPI rank memory allocation (min/avg/max) = 14.76 | 15.1 | 15.5 Mbytes
   Step          Temp          E_pair         E_mol          TotEng         Press     
     20078   0              76.144017      69.017349      145.16137      50692.374    
     30078   2.8277672e-05  51.56001       24.97583       76.535845      18054.253    
WARNING: Bond/angle/dihedral extent > half of periodic box length (src/domain.cpp:940)
Loop time of 2.12092 on 40 procs for 10000 steps with 68 atoms

101.4% CPU use with 20 MPI tasks x 2 OpenMP threads

Minimization stats:
  Stopping criterion = max iterations
  Energy initial, next-to-last, final = 
      145.161365983547   76.5357742020339   76.5358395914564
  Force two-norm initial, final = 627.35408 0.11826382
  Force max component initial, final = 512.50458 0.02134603
  Final line search alpha, max atom move = 0 0
  Iterations, force evaluations = 10000 10535

MPI task timing breakdown:
Section |  min time  |  avg time  |  max time  |%varavg| %total
---------------------------------------------------------------
Pair    | 0.34032    | 0.43938    | 0.55968    |   8.5 | 20.72
Bond    | 0.002999   | 0.24101    | 0.43138    |  29.8 | 11.36
Neigh   | 0.00066664 | 0.00068011 | 0.00069317 |   0.0 |  0.03
Comm    | 0.78144    | 1.0997     | 1.4424     |  18.6 | 51.85
Output  | 3.2543e-05 | 3.3387e-05 | 4.1245e-05 |   0.0 |  0.00
Modify  | 0.13442    | 0.16041    | 0.17812    |   3.4 |  7.56
Other   |            | 0.1797     |            |       |  8.47

Nlocal:            3.4 ave           6 max           1 min
Histogram: 2 0 4 0 4 0 5 0 4 1
Nghost:        3420.65 ave        3529 max        3362 min
Histogram: 6 0 2 6 0 2 2 0 1 1
Neighs:        1736.05 ave        3041 max         523 min
Histogram: 2 1 3 3 1 3 3 0 2 2

Total # of neighbors = 34721
Ave neighs/atom = 510.60294
Ave special neighs/atom = 4.9411765
Neighbor list builds = 1
Dangerous builds = 0
variable        AtomMinStep equal $(step)
variable        AtomMinStep equal 30078
variable        temppe     equal $(pe)
variable        temppe     equal 76.53583959145639426
variable        min_E      equal abs(${prev_E}-${temppe})
variable        min_E      equal abs(45.2981766144096-${temppe})
variable        min_E      equal abs(45.2981766144096-76.5358395914564)
print           "${iter},${CellMinStep},${AtomMinStep},${AtomMinStep},$(pe),${min_E}" append p1_structure.min.csv screen no
if              "${min_E} < ${min_eval}" then "jump SELF break_min"
variable        prev_E     equal ${temppe}
variable        prev_E     equal 76.5358395914564
next            iter
jump            SELF loop_min
min_style       cg
fix             1 all box/relax tri 50000 vmax 0.05
minimize        1.0e-15 1.0e-15 10000 100000
WARNING: Using 'neigh_modify every 1 delay 0 check yes' setting during minimization (src/min.cpp:187)
----------------------------------------------------------
Using INTEL Package without Coprocessor.
Compiler: Intel LLVM C++ 202202.0 / Intel(R) oneAPI DPC++/C++ Compiler 2022.2.1 (2022.2.1.20221020)
SIMD compiler directives: Enabled
Precision: mixed
----------------------------------------------------------
Generated 6 of 6 mixed pair_coeff terms from arithmetic mixing rule
WARNING: Bond/angle/dihedral extent > half of periodic box length (src/domain.cpp:940)
Per MPI rank memory allocation (min/avg/max) = 15.88 | 16.28 | 16.62 Mbytes
   Step          Temp          E_pair         E_mol          TotEng         Press          Volume    
     30078   2.8277672e-05  51.560021      24.888965      76.448991      18054.253      851.25081    
     30148   2.8277672e-05  70.741187      18.334436      89.075629      47506.06       791.09675    
WARNING: Bond/angle/dihedral extent > half of periodic box length (src/domain.cpp:940)
Loop time of 0.127704 on 40 procs for 70 steps with 68 atoms

100.7% CPU use with 20 MPI tasks x 2 OpenMP threads

Minimization stats:
  Stopping criterion = linesearch alpha is zero
  Energy initial, next-to-last, final = 
      76.4489857662896   45.2113538547713   45.2113538547713
  Force two-norm initial, final = 753.05906 120.66981
  Force max component initial, final = 620.18446 82.570457
  Final line search alpha, max atom move = 6.343357e-12 5.2377389e-10
  Iterations, force evaluations = 70 311

MPI task timing breakdown:
Section |  min time  |  avg time  |  max time  |%varavg| %total
---------------------------------------------------------------
Pair    | 0.0071317  | 0.019554   | 0.024468   |   2.5 | 15.31
Bond    | 0.00014371 | 0.0094025  | 0.016218   |   5.3 |  7.36
Neigh   | 0.020009   | 0.020486   | 0.020909   |   0.2 | 16.04
Comm    | 0.03462    | 0.046656   | 0.073379   |   4.4 | 36.53
Output  | 0          | 0          | 0          |   0.0 |  0.00
Modify  | 0.00070623 | 0.0043414  | 0.0056865  |   2.0 |  3.40
Other   |            | 0.02726    |            |       | 21.35

Nlocal:            3.4 ave           6 max           1 min
Histogram: 1 0 3 0 8 0 4 0 3 1
Nghost:         3480.8 ave        3588 max        3382 min
Histogram: 2 0 2 6 3 1 1 2 1 2
Neighs:         1865.2 ave        3250 max         553 min
Histogram: 1 1 2 5 3 3 1 1 2 1

Total # of neighbors = 37304
Ave neighs/atom = 548.58824
Ave special neighs/atom = 4.9411765
Neighbor list builds = 102
Dangerous builds = 65
unfix           1
min_style       fire
variable        tempstp    equal $(step)
variable        tempstp    equal 30148
variable        CellMinStep equal ${tempstp}
variable        CellMinStep equal 30148
minimize        1.0e-15 1.0e-15 10000 100000
WARNING: Using 'neigh_modify every 1 delay 0 check yes' setting during minimization (src/min.cpp:187)
----------------------------------------------------------
Using INTEL Package without Coprocessor.
Compiler: Intel LLVM C++ 202202.0 / Intel(R) oneAPI DPC++/C++ Compiler 2022.2.1 (2022.2.1.20221020)
SIMD compiler directives: Enabled
Precision: mixed
----------------------------------------------------------
Generated 6 of 6 mixed pair_coeff terms from arithmetic mixing rule
  Parameters for fire: 
    dmax delaystep dtgrow dtshrink alpha0 alphashrink tmax tmin    integrator halfstepback 
     0.1        20    1.1      0.5   0.25        0.99   10 0.02 eulerimplicit          yes 
WARNING: Bond/angle/dihedral extent > half of periodic box length (src/domain.cpp:940)
Per MPI rank memory allocation (min/avg/max) = 14.8 | 15.19 | 15.51 Mbytes
   Step          Temp          E_pair         E_mol          TotEng         Press     
     30148   0              70.741187      18.334436      89.075623      47506.06     
     40148   8.790499e-06   62.733233      23.014823      85.748057      29379.294    
WARNING: Bond/angle/dihedral extent > half of periodic box length (src/domain.cpp:940)
Loop time of 2.13428 on 40 procs for 10000 steps with 68 atoms

98.4% CPU use with 20 MPI tasks x 2 OpenMP threads

Minimization stats:
  Stopping criterion = max iterations
  Energy initial, next-to-last, final = 
      89.0756228703915   85.7480168217575   85.7480556213573
  Force two-norm initial, final = 33.784698 0.069850992
  Force max component initial, final = 8.3770913 0.021483968
  Final line search alpha, max atom move = 0 0
  Iterations, force evaluations = 10000 10536

MPI task timing breakdown:
Section |  min time  |  avg time  |  max time  |%varavg| %total
---------------------------------------------------------------
Pair    | 0.35601    | 0.44942    | 0.58181    |   9.5 | 21.06
Bond    | 0.0029799  | 0.2681     | 0.45179    |  28.5 | 12.56
Neigh   | 0          | 0          | 0          |   0.0 |  0.00
Comm    | 0.80122    | 1.0698     | 1.4167     |  19.0 | 50.13
Output  | 4.3941e-05 | 4.4944e-05 | 5.5624e-05 |   0.0 |  0.00
Modify  | 0.14025    | 0.16507    | 0.1816     |   3.3 |  7.73
Other   |            | 0.1818     |            |       |  8.52

Nlocal:            3.4 ave           6 max           1 min
Histogram: 1 0 3 0 8 0 4 0 3 1
Nghost:         3475.4 ave        3588 max        3382 min
Histogram: 2 0 3 6 3 1 0 2 1 2
Neighs:         1864.2 ave        3250 max         552 min
Histogram: 1 1 2 5 3 3 1 1 2 1

Total # of neighbors = 37284
Ave neighs/atom = 548.29412
Ave special neighs/atom = 4.9411765
Neighbor list builds = 0
Dangerous builds = 0
variable        AtomMinStep equal $(step)
variable        AtomMinStep equal 40148
variable        temppe     equal $(pe)
variable        temppe     equal 85.74805562135732373
variable        min_E      equal abs(${prev_E}-${temppe})
variable        min_E      equal abs(76.5358395914564-${temppe})
variable        min_E      equal abs(76.5358395914564-85.7480556213573)
print           "${iter},${CellMinStep},${AtomMinStep},${AtomMinStep},$(pe),${min_E}" append p1_structure.min.csv screen no
if              "${min_E} < ${min_eval}" then "jump SELF break_min"
variable        prev_E     equal ${temppe}
variable        prev_E     equal 85.7480556213573
next            iter
jump            SELF loop_min
min_style       cg
fix             1 all box/relax tri 50000 vmax 0.05
minimize        1.0e-15 1.0e-15 10000 100000
WARNING: Using 'neigh_modify every 1 delay 0 check yes' setting during minimization (src/min.cpp:187)
----------------------------------------------------------
Using INTEL Package without Coprocessor.
Compiler: Intel LLVM C++ 202202.0 / Intel(R) oneAPI DPC++/C++ Compiler 2022.2.1 (2022.2.1.20221020)
SIMD compiler directives: Enabled
Precision: mixed
----------------------------------------------------------
Generated 6 of 6 mixed pair_coeff terms from arithmetic mixing rule
WARNING: Bond/angle/dihedral extent > half of periodic box length (src/domain.cpp:940)
Per MPI rank memory allocation (min/avg/max) = 15.93 | 16.31 | 16.64 Mbytes
   Step          Temp          E_pair         E_mol          TotEng         Press          Volume    
     40148   8.790499e-06   62.733235      23.014823      85.74806       29379.295      791.09675    
     40251   8.790499e-06   73.430178      179.3546       252.78478      34595.212      755.59538    
WARNING: Bond/angle/dihedral extent > half of periodic box length (src/domain.cpp:940)
Loop time of 0.1382 on 40 procs for 103 steps with 68 atoms

102.7% CPU use with 20 MPI tasks x 2 OpenMP threads

Minimization stats:
  Stopping criterion = linesearch alpha is zero
  Energy initial, next-to-last, final = 
      85.7480579245363   65.4379882543764   226.897232161404
  Force two-norm initial, final = 567.3286 1520.82
  Force max component initial, final = 419.48547 915.80922
  Final line search alpha, max atom move = 4.1283804e-12 3.7808088e-09
  Iterations, force evaluations = 103 328

MPI task timing breakdown:
Section |  min time  |  avg time  |  max time  |%varavg| %total
---------------------------------------------------------------
Pair    | 0.01852    | 0.022256   | 0.025222   |   1.4 | 16.10
Bond    | 0.0002483  | 0.0099142  | 0.017548   |   6.0 |  7.17
Neigh   | 0.021358   | 0.021775   | 0.022091   |   0.2 | 15.76
Comm    | 0.038334   | 0.049963   | 0.063117   |   3.9 | 36.15
Output  | 0          | 0          | 0          |   0.0 |  0.00
Modify  | 0.0022287  | 0.0047704  | 0.0063734  |   2.0 |  3.45
Other   |            | 0.02952    |            |       | 21.36

Nlocal:            3.4 ave           5 max           2 min
Histogram: 5 0 0 6 0 0 5 0 0 4
Nghost:        3667.85 ave        3770 max        3537 min
Histogram: 1 1 1 3 2 4 0 4 2 2
Neighs:           1970 ave        2987 max        1098 min
Histogram: 5 0 0 5 1 0 5 0 1 3

Total # of neighbors = 39400
Ave neighs/atom = 579.41176
Ave special neighs/atom = 4.9411765
Neighbor list builds = 113
Dangerous builds = 60
unfix           1
min_style       fire
variable        tempstp    equal $(step)
variable        tempstp    equal 40251
variable        CellMinStep equal ${tempstp}
variable        CellMinStep equal 40251
minimize        1.0e-15 1.0e-15 10000 100000
WARNING: Using 'neigh_modify every 1 delay 0 check yes' setting during minimization (src/min.cpp:187)
----------------------------------------------------------
Using INTEL Package without Coprocessor.
Compiler: Intel LLVM C++ 202202.0 / Intel(R) oneAPI DPC++/C++ Compiler 2022.2.1 (2022.2.1.20221020)
SIMD compiler directives: Enabled
Precision: mixed
----------------------------------------------------------
Generated 6 of 6 mixed pair_coeff terms from arithmetic mixing rule
  Parameters for fire: 
    dmax delaystep dtgrow dtshrink alpha0 alphashrink tmax tmin    integrator halfstepback 
     0.1        20    1.1      0.5   0.25        0.99   10 0.02 eulerimplicit          yes 
WARNING: Bond/angle/dihedral extent > half of periodic box length (src/domain.cpp:940)
Per MPI rank memory allocation (min/avg/max) = 14.79 | 15.19 | 15.51 Mbytes
   Step          Temp          E_pair         E_mol          TotEng         Press     
     40251   0              73.430178      179.3546       252.78478      34595.212    
     50251   3.3896462e-05  66.537293      21.697176      88.234476      42802.896    
WARNING: Bond/angle/dihedral extent > half of periodic box length (src/domain.cpp:940)
Loop time of 2.13456 on 40 procs for 10000 steps with 68 atoms

99.3% CPU use with 20 MPI tasks x 2 OpenMP threads

Minimization stats:
  Stopping criterion = max iterations
  Energy initial, next-to-last, final = 
      252.784780182149   88.2344563263944   88.2344693890394
  Force two-norm initial, final = 1198.8315 0.057697983
  Force max component initial, final = 915.80922 0.010853426
  Final line search alpha, max atom move = 0 0
  Iterations, force evaluations = 10000 10539

MPI task timing breakdown:
Section |  min time  |  avg time  |  max time  |%varavg| %total
---------------------------------------------------------------
Pair    | 0.3709     | 0.44633    | 0.53525    |   7.9 | 20.91
Bond    | 0.0054369  | 0.26026    | 0.4364     |  27.8 | 12.19
Neigh   | 0          | 0          | 0          |   0.0 |  0.00
Comm    | 0.80684    | 1.0846     | 1.44       |  18.3 | 50.81
Output  | 3.965e-05  | 4.0333e-05 | 4.9125e-05 |   0.0 |  0.00
Modify  | 0.13978    | 0.16437    | 0.18723    |   3.8 |  7.70
Other   |            | 0.179      |            |       |  8.39

Nlocal:            3.4 ave           5 max           2 min
Histogram: 5 0 0 6 0 0 5 0 0 4
Nghost:        3597.45 ave        3699 max        3493 min
Histogram: 3 0 2 1 5 3 1 1 0 4
Neighs:         1944.8 ave        2956 max        1077 min
Histogram: 5 0 0 6 0 0 5 0 1 3

Total # of neighbors = 38896
Ave neighs/atom = 572
Ave special neighs/atom = 4.9411765
Neighbor list builds = 0
Dangerous builds = 0
variable        AtomMinStep equal $(step)
variable        AtomMinStep equal 50251
variable        temppe     equal $(pe)
variable        temppe     equal 88.234469389039446696
variable        min_E      equal abs(${prev_E}-${temppe})
variable        min_E      equal abs(85.7480556213573-${temppe})
variable        min_E      equal abs(85.7480556213573-88.2344693890394)
print           "${iter},${CellMinStep},${AtomMinStep},${AtomMinStep},$(pe),${min_E}" append p1_structure.min.csv screen no
if              "${min_E} < ${min_eval}" then "jump SELF break_min"
variable        prev_E     equal ${temppe}
variable        prev_E     equal 88.2344693890394
next            iter
jump            SELF loop_min
min_style       cg
fix             1 all box/relax tri 50000 vmax 0.05
minimize        1.0e-15 1.0e-15 10000 100000
WARNING: Using 'neigh_modify every 1 delay 0 check yes' setting during minimization (src/min.cpp:187)
----------------------------------------------------------
Using INTEL Package without Coprocessor.
Compiler: Intel LLVM C++ 202202.0 / Intel(R) oneAPI DPC++/C++ Compiler 2022.2.1 (2022.2.1.20221020)
SIMD compiler directives: Enabled
Precision: mixed
----------------------------------------------------------
Generated 6 of 6 mixed pair_coeff terms from arithmetic mixing rule
WARNING: Bond/angle/dihedral extent > half of periodic box length (src/domain.cpp:940)
Per MPI rank memory allocation (min/avg/max) = 15.92 | 16.31 | 16.63 Mbytes
   Step          Temp          E_pair         E_mol          TotEng         Press          Volume    
     50251   3.3896462e-05  66.537293      21.697181      88.234481      42802.882      755.59538    
     50455   3.3896462e-05  68.123176      22.92723       91.050413      53032.766      741.09054    
WARNING: Bond/angle/dihedral extent > half of periodic box length (src/domain.cpp:940)
Loop time of 0.230909 on 40 procs for 204 steps with 68 atoms

103.9% CPU use with 20 MPI tasks x 2 OpenMP threads

Minimization stats:
  Stopping criterion = linesearch alpha is zero
  Energy initial, next-to-last, final = 
      88.2344741579828   80.1125290020791   80.4734900126588
  Force two-norm initial, final = 214.95143 100.63431
  Force max component initial, final = 156.52657 66.300857
  Final line search alpha, max atom move = 1.8093608e-12 1.1996217e-10
  Iterations, force evaluations = 204 612

MPI task timing breakdown:
Section |  min time  |  avg time  |  max time  |%varavg| %total
---------------------------------------------------------------
Pair    | 0.03301    | 0.039729   | 0.048037   |   2.1 | 17.21
Bond    | 0.00046204 | 0.018293   | 0.031383   |   6.2 |  7.92
Neigh   | 0.026803   | 0.027622   | 0.028131   |   0.2 | 11.96
Comm    | 0.062393   | 0.085686   | 0.1165     |   4.7 | 37.11
Output  | 0          | 0          | 0          |   0.0 |  0.00
Modify  | 0.0039897  | 0.008929   | 0.011671   |   2.2 |  3.87
Other   |            | 0.05065    |            |       | 21.94

Nlocal:            3.4 ave           5 max           2 min
Histogram: 4 0 0 7 0 0 6 0 0 3
Nghost:         3622.7 ave        3773 max        3523 min
Histogram: 3 1 4 4 2 1 3 1 0 1
Neighs:         1964.5 ave        2959 max        1122 min
Histogram: 4 0 2 5 0 1 5 0 0 3

Total # of neighbors = 39290
Ave neighs/atom = 577.79412
Ave special neighs/atom = 4.9411765
Neighbor list builds = 142
Dangerous builds = 74
unfix           1
min_style       fire
variable        tempstp    equal $(step)
variable        tempstp    equal 50455
variable        CellMinStep equal ${tempstp}
variable        CellMinStep equal 50455
minimize        1.0e-15 1.0e-15 10000 100000
WARNING: Using 'neigh_modify every 1 delay 0 check yes' setting during minimization (src/min.cpp:187)
----------------------------------------------------------
Using INTEL Package without Coprocessor.
Compiler: Intel LLVM C++ 202202.0 / Intel(R) oneAPI DPC++/C++ Compiler 2022.2.1 (2022.2.1.20221020)
SIMD compiler directives: Enabled
Precision: mixed
----------------------------------------------------------
Generated 6 of 6 mixed pair_coeff terms from arithmetic mixing rule
  Parameters for fire: 
    dmax delaystep dtgrow dtshrink alpha0 alphashrink tmax tmin    integrator halfstepback 
     0.1        20    1.1      0.5   0.25        0.99   10 0.02 eulerimplicit          yes 
WARNING: Bond/angle/dihedral extent > half of periodic box length (src/domain.cpp:940)
Per MPI rank memory allocation (min/avg/max) = 14.81 | 15.21 | 15.55 Mbytes
   Step          Temp          E_pair         E_mol          TotEng         Press     
     50455   0              68.123176      22.92723       91.050406      53032.766    
     60455   5.9573602e-06  64.633746      23.280288      87.914036      48454.969    
WARNING: Bond/angle/dihedral extent > half of periodic box length (src/domain.cpp:940)
Loop time of 2.47831 on 40 procs for 10000 steps with 68 atoms

97.5% CPU use with 20 MPI tasks x 2 OpenMP threads

Minimization stats:
  Stopping criterion = max iterations
  Energy initial, next-to-last, final = 
      91.0504061270341   87.9140793114941   87.9140344010367
  Force two-norm initial, final = 43.584079 0.021875987
  Force max component initial, final = 23.120608 0.0082925335
  Final line search alpha, max atom move = 0 0
  Iterations, force evaluations = 10000 10537

MPI task timing breakdown:
Section |  min time  |  avg time  |  max time  |%varavg| %total
---------------------------------------------------------------
Pair    | 0.42564    | 0.51488    | 0.59379    |   7.2 | 20.78
Bond    | 0.0071228  | 0.30829    | 0.46719    |  26.5 | 12.44
Neigh   | 0          | 0          | 0          |   0.0 |  0.00
Comm    | 0.99823    | 1.2517     | 1.6204     |  16.8 | 50.51
Output  | 4.2743e-05 | 4.4205e-05 | 5.0971e-05 |   0.0 |  0.00
Modify  | 0.16662    | 0.19169    | 0.216      |   2.9 |  7.73
Other   |            | 0.2117     |            |       |  8.54

Nlocal:            3.4 ave           5 max           2 min
Histogram: 4 0 0 7 0 0 6 0 0 3
Nghost:        3668.75 ave        3805 max        3568 min
Histogram: 1 2 4 3 3 2 3 1 0 1
Neighs:         1984.6 ave        2980 max        1134 min
Histogram: 4 0 2 5 0 1 5 0 0 3

Total # of neighbors = 39692
Ave neighs/atom = 583.70588
Ave special neighs/atom = 4.9411765
Neighbor list builds = 0
Dangerous builds = 0
variable        AtomMinStep equal $(step)
variable        AtomMinStep equal 60455
variable        temppe     equal $(pe)
variable        temppe     equal 87.914034401036744271
variable        min_E      equal abs(${prev_E}-${temppe})
variable        min_E      equal abs(88.2344693890394-${temppe})
variable        min_E      equal abs(88.2344693890394-87.9140344010367)
print           "${iter},${CellMinStep},${AtomMinStep},${AtomMinStep},$(pe),${min_E}" append p1_structure.min.csv screen no
if              "${min_E} < ${min_eval}" then "jump SELF break_min"
variable        prev_E     equal ${temppe}
variable        prev_E     equal 87.9140344010367
next            iter
jump            SELF loop_min
min_style       cg
fix             1 all box/relax tri 50000 vmax 0.05
minimize        1.0e-15 1.0e-15 10000 100000
WARNING: Using 'neigh_modify every 1 delay 0 check yes' setting during minimization (src/min.cpp:187)
----------------------------------------------------------
Using INTEL Package without Coprocessor.
Compiler: Intel LLVM C++ 202202.0 / Intel(R) oneAPI DPC++/C++ Compiler 2022.2.1 (2022.2.1.20221020)
SIMD compiler directives: Enabled
Precision: mixed
----------------------------------------------------------
Generated 6 of 6 mixed pair_coeff terms from arithmetic mixing rule
WARNING: Bond/angle/dihedral extent > half of periodic box length (src/domain.cpp:940)
Per MPI rank memory allocation (min/avg/max) = 15.94 | 16.34 | 16.67 Mbytes
   Step          Temp          E_pair         E_mol          TotEng         Press          Volume    
     60455   5.9573602e-06  64.633746      23.297854      87.931601      48454.975      741.09054    
     60459   5.9573602e-06  65.365394      22.993655      88.35905       50507.205      740.47414    
WARNING: Bond/angle/dihedral extent > half of periodic box length (src/domain.cpp:940)
Loop time of 0.0618992 on 40 procs for 4 steps with 68 atoms

101.2% CPU use with 20 MPI tasks x 2 OpenMP threads

Minimization stats:
  Stopping criterion = linesearch alpha is zero
  Energy initial, next-to-last, final = 
      87.9315996914621   87.9095732101247   87.9095732101247
  Force two-norm initial, final = 43.088472 27.187949
  Force max component initial, final = 34.245426 19.806125
  Final line search alpha, max atom move = 9.4043301e-12 1.8626334e-10
  Iterations, force evaluations = 4 144

MPI task timing breakdown:
Section |  min time  |  avg time  |  max time  |%varavg| %total
---------------------------------------------------------------
Pair    | 0.0078531  | 0.013147   | 0.015246   |   1.4 | 21.24
Bond    | 0.00014783 | 0.0062228  | 0.0091387  |   3.6 | 10.05
Neigh   | 0.0016228  | 0.0016556  | 0.0017236  |   0.1 |  2.67
Comm    | 0.017394   | 0.022703   | 0.032648   |   3.1 | 36.68
Output  | 0          | 0          | 0          |   0.0 |  0.00
Modify  | 0.0014564  | 0.0030898  | 0.0040315  |   1.4 |  4.99
Other   |            | 0.01508    |            |       | 24.36

Nlocal:            3.4 ave           5 max           2 min
Histogram: 4 0 0 6 0 0 8 0 0 2
Nghost:        3690.15 ave        3768 max        3610 min
Histogram: 3 1 2 2 3 0 2 2 2 3
Neighs:         1985.1 ave        2967 max        1145 min
Histogram: 4 0 2 4 0 0 8 0 0 2

Total # of neighbors = 39702
Ave neighs/atom = 583.85294
Ave special neighs/atom = 4.9411765
Neighbor list builds = 6
Dangerous builds = 2
unfix           1
min_style       fire
variable        tempstp    equal $(step)
variable        tempstp    equal 60459
variable        CellMinStep equal ${tempstp}
variable        CellMinStep equal 60459
minimize        1.0e-15 1.0e-15 10000 100000
WARNING: Using 'neigh_modify every 1 delay 0 check yes' setting during minimization (src/min.cpp:187)
----------------------------------------------------------
Using INTEL Package without Coprocessor.
Compiler: Intel LLVM C++ 202202.0 / Intel(R) oneAPI DPC++/C++ Compiler 2022.2.1 (2022.2.1.20221020)
SIMD compiler directives: Enabled
Precision: mixed
----------------------------------------------------------
Generated 6 of 6 mixed pair_coeff terms from arithmetic mixing rule
  Parameters for fire: 
    dmax delaystep dtgrow dtshrink alpha0 alphashrink tmax tmin    integrator halfstepback 
     0.1        20    1.1      0.5   0.25        0.99   10 0.02 eulerimplicit          yes 
WARNING: Bond/angle/dihedral extent > half of periodic box length (src/domain.cpp:940)
Per MPI rank memory allocation (min/avg/max) = 14.81 | 15.21 | 15.55 Mbytes
   Step          Temp          E_pair         E_mol          TotEng         Press     
     60459   0              65.365394      22.993655      88.359049      50507.205    
     70459   8.8086143e-09  65.009071      23.306823      88.315894      48867.988    
WARNING: Bond/angle/dihedral extent > half of periodic box length (src/domain.cpp:940)
Loop time of 2.82173 on 40 procs for 10000 steps with 68 atoms

96.5% CPU use with 20 MPI tasks x 2 OpenMP threads

Minimization stats:
  Stopping criterion = max iterations
  Energy initial, next-to-last, final = 
      88.3590488483225   88.3158958878311   88.3158938093741
  Force two-norm initial, final = 5.1977528 0.010317574
  Force max component initial, final = 1.2481739 0.0051874094
  Final line search alpha, max atom move = 0 0
  Iterations, force evaluations = 10000 10519

MPI task timing breakdown:
Section |  min time  |  avg time  |  max time  |%varavg| %total
---------------------------------------------------------------
Pair    | 0.35824    | 0.59008    | 0.68762    |  10.1 | 20.91
Bond    | 0.007771   | 0.34726    | 0.51468    |  28.5 | 12.31
Neigh   | 0          | 0          | 0          |   0.0 |  0.00
Comm    | 1.1287     | 1.4019     | 1.8768     |  19.6 | 49.68
Output  | 5.1897e-05 | 5.3747e-05 | 6.387e-05  |   0.0 |  0.00
Modify  | 0.14818    | 0.23003    | 0.26967    |   5.5 |  8.15
Other   |            | 0.2524     |            |       |  8.95

Nlocal:            3.4 ave           5 max           2 min
Histogram: 4 0 0 6 0 0 8 0 0 2
Nghost:        3690.15 ave        3768 max        3610 min
Histogram: 3 1 2 2 3 0 2 2 2 3
Neighs:        1985.85 ave        2967 max        1146 min
Histogram: 4 0 2 4 0 0 8 0 0 2

Total # of neighbors = 39717
Ave neighs/atom = 584.07353
Ave special neighs/atom = 4.9411765
Neighbor list builds = 0
Dangerous builds = 0
variable        AtomMinStep equal $(step)
variable        AtomMinStep equal 70459
variable        temppe     equal $(pe)
variable        temppe     equal 88.31589380937410283
variable        min_E      equal abs(${prev_E}-${temppe})
variable        min_E      equal abs(87.9140344010367-${temppe})
variable        min_E      equal abs(87.9140344010367-88.3158938093741)
print           "${iter},${CellMinStep},${AtomMinStep},${AtomMinStep},$(pe),${min_E}" append p1_structure.min.csv screen no
if              "${min_E} < ${min_eval}" then "jump SELF break_min"
variable        prev_E     equal ${temppe}
variable        prev_E     equal 88.3158938093741
next            iter
jump            SELF loop_min
min_style       cg
fix             1 all box/relax tri 50000 vmax 0.05
minimize        1.0e-15 1.0e-15 10000 100000
WARNING: Using 'neigh_modify every 1 delay 0 check yes' setting during minimization (src/min.cpp:187)
----------------------------------------------------------
Using INTEL Package without Coprocessor.
Compiler: Intel LLVM C++ 202202.0 / Intel(R) oneAPI DPC++/C++ Compiler 2022.2.1 (2022.2.1.20221020)
SIMD compiler directives: Enabled
Precision: mixed
----------------------------------------------------------
Generated 6 of 6 mixed pair_coeff terms from arithmetic mixing rule
WARNING: Bond/angle/dihedral extent > half of periodic box length (src/domain.cpp:940)
Per MPI rank memory allocation (min/avg/max) = 15.94 | 16.34 | 16.67 Mbytes
   Step          Temp          E_pair         E_mol          TotEng         Press          Volume    
     70459   8.8086143e-09  65.009071      23.306823      88.315894      48867.988      740.47414    
     70467   8.8086143e-09  65.61591       23.05697       88.67288       50621.863      739.9593     
WARNING: Bond/angle/dihedral extent > half of periodic box length (src/domain.cpp:940)
Loop time of 0.137076 on 40 procs for 8 steps with 68 atoms

97.7% CPU use with 20 MPI tasks x 2 OpenMP threads

Minimization stats:
  Stopping criterion = linesearch alpha is zero
  Energy initial, next-to-last, final = 
       88.315893809374   88.2974596764108   88.2974596764108
  Force two-norm initial, final = 38.062467 26.604792
  Force max component initial, final = 29.518021 20.211384
  Final line search alpha, max atom move = 9.2156216e-12 1.8626047e-10
  Iterations, force evaluations = 8 323

MPI task timing breakdown:
Section |  min time  |  avg time  |  max time  |%varavg| %total
---------------------------------------------------------------
Pair    | 0.017402   | 0.028353   | 0.033411   |   2.2 | 20.68
Bond    | 0.00024242 | 0.013532   | 0.020232   |   5.5 |  9.87
Neigh   | 0.0033173  | 0.0034867  | 0.0036974  |   0.2 |  2.54
Comm    | 0.038512   | 0.051481   | 0.073016   |   4.8 | 37.56
Output  | 0          | 0          | 0          |   0.0 |  0.00
Modify  | 0.0023323  | 0.0067252  | 0.0089915  |   2.3 |  4.91
Other   |            | 0.0335     |            |       | 24.44

Nlocal:            3.4 ave           5 max           2 min
Histogram: 4 0 0 6 0 0 8 0 0 2
Nghost:         3695.1 ave        3823 max        3610 min
Histogram: 3 3 2 3 1 2 2 3 0 1
Neighs:        1986.45 ave        2968 max        1146 min
Histogram: 4 0 2 4 0 0 8 0 0 2

Total # of neighbors = 39729
Ave neighs/atom = 584.25
Ave special neighs/atom = 4.9411765
Neighbor list builds = 14
Dangerous builds = 8
unfix           1
min_style       fire
variable        tempstp    equal $(step)
variable        tempstp    equal 70467
variable        CellMinStep equal ${tempstp}
variable        CellMinStep equal 70467
minimize        1.0e-15 1.0e-15 10000 100000
WARNING: Using 'neigh_modify every 1 delay 0 check yes' setting during minimization (src/min.cpp:187)
----------------------------------------------------------
Using INTEL Package without Coprocessor.
Compiler: Intel LLVM C++ 202202.0 / Intel(R) oneAPI DPC++/C++ Compiler 2022.2.1 (2022.2.1.20221020)
SIMD compiler directives: Enabled
Precision: mixed
----------------------------------------------------------
Generated 6 of 6 mixed pair_coeff terms from arithmetic mixing rule
  Parameters for fire: 
    dmax delaystep dtgrow dtshrink alpha0 alphashrink tmax tmin    integrator halfstepback 
     0.1        20    1.1      0.5   0.25        0.99   10 0.02 eulerimplicit          yes 
WARNING: Bond/angle/dihedral extent > half of periodic box length (src/domain.cpp:940)
Per MPI rank memory allocation (min/avg/max) = 14.81 | 15.21 | 15.55 Mbytes
   Step          Temp          E_pair         E_mol          TotEng         Press     
     70467   0              65.61591       23.05697       88.67288       50621.863    
     80467   4.0033376e-08  65.32357       23.316468      88.640038      49215.525    
WARNING: Bond/angle/dihedral extent > half of periodic box length (src/domain.cpp:940)
Loop time of 2.89551 on 40 procs for 10000 steps with 68 atoms

96.6% CPU use with 20 MPI tasks x 2 OpenMP threads

Minimization stats:
  Stopping criterion = max iterations
  Energy initial, next-to-last, final = 
      88.6728796854947   88.6400419148883   88.6400378872196
  Force two-norm initial, final = 4.7870672 0.0095118206
  Force max component initial, final = 1.2286589 0.0025233108
  Final line search alpha, max atom move = 0 0
  Iterations, force evaluations = 10000 10514

MPI task timing breakdown:
Section |  min time  |  avg time  |  max time  |%varavg| %total
---------------------------------------------------------------
Pair    | 0.45515    | 0.61001    | 0.6918     |   7.8 | 21.07
Bond    | 0.007591   | 0.35596    | 0.52914    |  28.5 | 12.29
Neigh   | 0          | 0          | 0          |   0.0 |  0.00
Comm    | 1.166      | 1.4354     | 1.8827     |  18.9 | 49.57
Output  | 4.0792e-05 | 4.1844e-05 | 5.2843e-05 |   0.0 |  0.00
Modify  | 0.17501    | 0.23446    | 0.27116    |   5.4 |  8.10
Other   |            | 0.2596     |            |       |  8.97

Nlocal:            3.4 ave           5 max           2 min
Histogram: 4 0 0 6 0 0 8 0 0 2
Nghost:         3695.1 ave        3823 max        3610 min
Histogram: 3 3 2 3 1 2 2 3 0 1
Neighs:        1987.25 ave        2970 max        1146 min
Histogram: 4 0 2 4 0 0 8 0 0 2

Total # of neighbors = 39745
Ave neighs/atom = 584.48529
Ave special neighs/atom = 4.9411765
Neighbor list builds = 0
Dangerous builds = 0
variable        AtomMinStep equal $(step)
variable        AtomMinStep equal 80467
variable        temppe     equal $(pe)
variable        temppe     equal 88.640037887219634172
variable        min_E      equal abs(${prev_E}-${temppe})
variable        min_E      equal abs(88.3158938093741-${temppe})
variable        min_E      equal abs(88.3158938093741-88.6400378872196)
print           "${iter},${CellMinStep},${AtomMinStep},${AtomMinStep},$(pe),${min_E}" append p1_structure.min.csv screen no
if              "${min_E} < ${min_eval}" then "jump SELF break_min"
variable        prev_E     equal ${temppe}
variable        prev_E     equal 88.6400378872196
next            iter
jump            SELF loop_min
min_style       cg
fix             1 all box/relax tri 50000 vmax 0.05
minimize        1.0e-15 1.0e-15 10000 100000
WARNING: Using 'neigh_modify every 1 delay 0 check yes' setting during minimization (src/min.cpp:187)
----------------------------------------------------------
Using INTEL Package without Coprocessor.
Compiler: Intel LLVM C++ 202202.0 / Intel(R) oneAPI DPC++/C++ Compiler 2022.2.1 (2022.2.1.20221020)
SIMD compiler directives: Enabled
Precision: mixed
----------------------------------------------------------
Generated 6 of 6 mixed pair_coeff terms from arithmetic mixing rule
WARNING: Bond/angle/dihedral extent > half of periodic box length (src/domain.cpp:940)
Per MPI rank memory allocation (min/avg/max) = 15.94 | 16.34 | 16.67 Mbytes
   Step          Temp          E_pair         E_mol          TotEng         Press          Volume    
     80467   4.0033376e-08  65.32357       23.316468      88.640038      49215.525      739.9593     
     80528   4.0033376e-08  65.568477      23.225942      88.794419      50036.35       737.98668    
WARNING: Bond/angle/dihedral extent > half of periodic box length (src/domain.cpp:940)
Loop time of 0.11278 on 40 procs for 61 steps with 68 atoms

97.2% CPU use with 20 MPI tasks x 2 OpenMP threads

Minimization stats:
  Stopping criterion = linesearch alpha is zero
  Energy initial, next-to-last, final = 
      88.6400378872197   87.3361158176676   87.3559855250542
  Force two-norm initial, final = 34.301968 13.745685
  Force max component initial, final = 25.068713 9.3405533
  Final line search alpha, max atom move = 4.3417865e-11 4.0554688e-10
  Iterations, force evaluations = 61 214

MPI task timing breakdown:
Section |  min time  |  avg time  |  max time  |%varavg| %total
---------------------------------------------------------------
Pair    | 0.013727   | 0.018927   | 0.022498   |   1.4 | 16.78
Bond    | 0.00018251 | 0.0093186  | 0.013762   |   4.3 |  8.26
Neigh   | 0.013057   | 0.013464   | 0.014369   |   0.2 | 11.94
Comm    | 0.032995   | 0.041181   | 0.055694   |   3.2 | 36.51
Output  | 0          | 0          | 0          |   0.0 |  0.00
Modify  | 0.0015125  | 0.0044632  | 0.0057796  |   1.6 |  3.96
Other   |            | 0.02543    |            |       | 22.55

Nlocal:            3.4 ave           5 max           2 min
Histogram: 3 0 0 8 0 0 7 0 0 2
Nghost:        3704.55 ave        3814 max        3601 min
Histogram: 1 3 1 3 2 3 3 1 0 3
Neighs:         1992.2 ave        2984 max        1126 min
Histogram: 3 0 2 6 0 1 6 0 0 2

Total # of neighbors = 39844
Ave neighs/atom = 585.94118
Ave special neighs/atom = 4.9411765
Neighbor list builds = 54
Dangerous builds = 38
unfix           1
min_style       fire
variable        tempstp    equal $(step)
variable        tempstp    equal 80528
variable        CellMinStep equal ${tempstp}
variable        CellMinStep equal 80528
minimize        1.0e-15 1.0e-15 10000 100000
WARNING: Using 'neigh_modify every 1 delay 0 check yes' setting during minimization (src/min.cpp:187)
----------------------------------------------------------
Using INTEL Package without Coprocessor.
Compiler: Intel LLVM C++ 202202.0 / Intel(R) oneAPI DPC++/C++ Compiler 2022.2.1 (2022.2.1.20221020)
SIMD compiler directives: Enabled
Precision: mixed
----------------------------------------------------------
Generated 6 of 6 mixed pair_coeff terms from arithmetic mixing rule
  Parameters for fire: 
    dmax delaystep dtgrow dtshrink alpha0 alphashrink tmax tmin    integrator halfstepback 
     0.1        20    1.1      0.5   0.25        0.99   10 0.02 eulerimplicit          yes 
WARNING: Bond/angle/dihedral extent > half of periodic box length (src/domain.cpp:940)
Per MPI rank memory allocation (min/avg/max) = 14.81 | 15.22 | 15.55 Mbytes
   Step          Temp          E_pair         E_mol          TotEng         Press     
     80528   0              65.568477      23.225942      88.794419      50036.35     
     90528   1.4250969e-06  64.784115      23.549624      88.33374       49579.298    
WARNING: Bond/angle/dihedral extent > half of periodic box length (src/domain.cpp:940)
Loop time of 2.92613 on 40 procs for 10000 steps with 68 atoms

96.6% CPU use with 20 MPI tasks x 2 OpenMP threads

Minimization stats:
  Stopping criterion = max iterations
  Energy initial, next-to-last, final = 
      88.7944188811124   88.3336950581691   88.3337392566752
  Force two-norm initial, final = 5.2893139 0.01454903
  Force max component initial, final = 1.3126195 0.0032613881
  Final line search alpha, max atom move = 0 0
  Iterations, force evaluations = 10000 10533

MPI task timing breakdown:
Section |  min time  |  avg time  |  max time  |%varavg| %total
---------------------------------------------------------------
Pair    | 0.4484     | 0.60278    | 0.70066    |   8.3 | 20.60
Bond    | 0.0082122  | 0.35511    | 0.54536    |  28.1 | 12.14
Neigh   | 0          | 0          | 0          |   0.0 |  0.00
Comm    | 1.1974     | 1.4557     | 1.9157     |  18.1 | 49.75
Output  | 4.7134e-05 | 4.8685e-05 | 5.8134e-05 |   0.0 |  0.00
Modify  | 0.14347    | 0.22998    | 0.27442    |   5.9 |  7.86
Other   |            | 0.2825     |            |       |  9.65

Nlocal:            3.4 ave           5 max           2 min
Histogram: 3 0 0 8 0 0 7 0 0 2
Nghost:        3704.55 ave        3814 max        3601 min
Histogram: 1 3 1 3 2 3 3 1 0 3
Neighs:        1991.55 ave        2986 max        1125 min
Histogram: 3 0 2 6 0 1 6 0 0 2

Total # of neighbors = 39831
Ave neighs/atom = 585.75
Ave special neighs/atom = 4.9411765
Neighbor list builds = 0
Dangerous builds = 0
variable        AtomMinStep equal $(step)
variable        AtomMinStep equal 90528
variable        temppe     equal $(pe)
variable        temppe     equal 88.333739256675173124
variable        min_E      equal abs(${prev_E}-${temppe})
variable        min_E      equal abs(88.6400378872196-${temppe})
variable        min_E      equal abs(88.6400378872196-88.3337392566752)
print           "${iter},${CellMinStep},${AtomMinStep},${AtomMinStep},$(pe),${min_E}" append p1_structure.min.csv screen no
if              "${min_E} < ${min_eval}" then "jump SELF break_min"
variable        prev_E     equal ${temppe}
variable        prev_E     equal 88.3337392566752
next            iter
jump            SELF loop_min
min_style       cg
fix             1 all box/relax tri 50000 vmax 0.05
minimize        1.0e-15 1.0e-15 10000 100000
WARNING: Using 'neigh_modify every 1 delay 0 check yes' setting during minimization (src/min.cpp:187)
----------------------------------------------------------
Using INTEL Package without Coprocessor.
Compiler: Intel LLVM C++ 202202.0 / Intel(R) oneAPI DPC++/C++ Compiler 2022.2.1 (2022.2.1.20221020)
SIMD compiler directives: Enabled
Precision: mixed
----------------------------------------------------------
Generated 6 of 6 mixed pair_coeff terms from arithmetic mixing rule
WARNING: Bond/angle/dihedral extent > half of periodic box length (src/domain.cpp:940)
Per MPI rank memory allocation (min/avg/max) = 15.94 | 16.34 | 16.67 Mbytes
   Step          Temp          E_pair         E_mol          TotEng         Press          Volume    
     90528   1.4250969e-06  64.784115      23.549624      88.33374       49579.298      737.98668    
     90578   1.4250969e-06  64.390193      23.686523      88.076715      49747.94       737.27646    
WARNING: Bond/angle/dihedral extent > half of periodic box length (src/domain.cpp:940)
Loop time of 0.228656 on 40 procs for 50 steps with 68 atoms

98.5% CPU use with 20 MPI tasks x 2 OpenMP threads

Minimization stats:
  Stopping criterion = linesearch alpha is zero
  Energy initial, next-to-last, final = 
      88.3337392566753   87.5588256744046   87.5588256744046
  Force two-norm initial, final = 36.506258 12.615517
  Force max component initial, final = 29.54226 6.9459246
  Final line search alpha, max atom move = 5.3632749e-11 3.7252903e-10
  Iterations, force evaluations = 50 492

MPI task timing breakdown:
Section |  min time  |  avg time  |  max time  |%varavg| %total
---------------------------------------------------------------
Pair    | 0.026231   | 0.044441   | 0.05268    |   2.9 | 19.44
Bond    | 0.00036408 | 0.021688   | 0.031462   |   6.5 |  9.48
Neigh   | 0.010941   | 0.011213   | 0.011795   |   0.2 |  4.90
Comm    | 0.067868   | 0.085648   | 0.13065    |   5.5 | 37.46
Output  | 0          | 0          | 0          |   0.0 |  0.00
Modify  | 0.0030908  | 0.01041    | 0.013933   |   2.7 |  4.55
Other   |            | 0.05526    |            |       | 24.17

Nlocal:            3.4 ave           5 max           2 min
Histogram: 3 0 0 8 0 0 7 0 0 2
Nghost:        3704.95 ave        3852 max        3580 min
Histogram: 3 2 2 2 2 3 2 1 1 2
Neighs:        1994.35 ave        2990 max        1125 min
Histogram: 3 0 2 6 0 0 7 0 0 2

Total # of neighbors = 39887
Ave neighs/atom = 586.57353
Ave special neighs/atom = 4.9411765
Neighbor list builds = 43
Dangerous builds = 25
unfix           1
min_style       fire
variable        tempstp    equal $(step)
variable        tempstp    equal 90578
variable        CellMinStep equal ${tempstp}
variable        CellMinStep equal 90578
minimize        1.0e-15 1.0e-15 10000 100000
WARNING: Using 'neigh_modify every 1 delay 0 check yes' setting during minimization (src/min.cpp:187)
----------------------------------------------------------
Using INTEL Package without Coprocessor.
Compiler: Intel LLVM C++ 202202.0 / Intel(R) oneAPI DPC++/C++ Compiler 2022.2.1 (2022.2.1.20221020)
SIMD compiler directives: Enabled
Precision: mixed
----------------------------------------------------------
Generated 6 of 6 mixed pair_coeff terms from arithmetic mixing rule
  Parameters for fire: 
    dmax delaystep dtgrow dtshrink alpha0 alphashrink tmax tmin    integrator halfstepback 
     0.1        20    1.1      0.5   0.25        0.99   10 0.02 eulerimplicit          yes 
WARNING: Bond/angle/dihedral extent > half of periodic box length (src/domain.cpp:940)
Per MPI rank memory allocation (min/avg/max) = 14.81 | 15.22 | 15.55 Mbytes
   Step          Temp          E_pair         E_mol          TotEng         Press     
     90578   0              64.390193      23.686523      88.076715      49747.94     
    100578   2.3996376e-07  63.804054      23.838177      87.642231      49336.067    
WARNING: Bond/angle/dihedral extent > half of periodic box length (src/domain.cpp:940)
Loop time of 2.93969 on 40 procs for 10000 steps with 68 atoms

98.2% CPU use with 20 MPI tasks x 2 OpenMP threads

Minimization stats:
  Stopping criterion = max iterations
  Energy initial, next-to-last, final = 
      88.0767151603319   87.6422970130125   87.6422311719025
  Force two-norm initial, final = 6.8686986 0.010894528
  Force max component initial, final = 1.8074255 0.0044118538
  Final line search alpha, max atom move = 0 0
  Iterations, force evaluations = 10000 10526

MPI task timing breakdown:
Section |  min time  |  avg time  |  max time  |%varavg| %total
---------------------------------------------------------------
Pair    | 0.35366    | 0.57744    | 0.69791    |  12.9 | 19.64
Bond    | 0.0094251  | 0.34173    | 0.53797    |  28.2 | 11.62
Neigh   | 0          | 0          | 0          |   0.0 |  0.00
Comm    | 1.2266     | 1.5196     | 2.1099     |  20.3 | 51.69
Output  | 0.00018823 | 0.00022902 | 0.00031711 |   0.0 |  0.01
Modify  | 0.14243    | 0.21997    | 0.26827    |   8.3 |  7.48
Other   |            | 0.2807     |            |       |  9.55

Nlocal:            3.4 ave           5 max           2 min
Histogram: 3 0 0 8 0 0 7 0 0 2
Nghost:        3704.95 ave        3852 max        3580 min
Histogram: 3 2 2 2 2 3 2 1 1 2
Neighs:         1993.4 ave        2990 max        1125 min
Histogram: 3 0 2 6 0 0 7 0 0 2

Total # of neighbors = 39868
Ave neighs/atom = 586.29412
Ave special neighs/atom = 4.9411765
Neighbor list builds = 0
Dangerous builds = 0
variable        AtomMinStep equal $(step)
variable        AtomMinStep equal 100578
variable        temppe     equal $(pe)
variable        temppe     equal 87.642231171902466258
variable        min_E      equal abs(${prev_E}-${temppe})
variable        min_E      equal abs(88.3337392566752-${temppe})
variable        min_E      equal abs(88.3337392566752-87.6422311719025)
print           "${iter},${CellMinStep},${AtomMinStep},${AtomMinStep},$(pe),${min_E}" append p1_structure.min.csv screen no
if              "${min_E} < ${min_eval}" then "jump SELF break_min"
variable        prev_E     equal ${temppe}
variable        prev_E     equal 87.6422311719025
next            iter
jump            SELF loop_min
min_style       cg
fix             1 all box/relax tri 50000 vmax 0.05
minimize        1.0e-15 1.0e-15 10000 100000
WARNING: Using 'neigh_modify every 1 delay 0 check yes' setting during minimization (src/min.cpp:187)
----------------------------------------------------------
Using INTEL Package without Coprocessor.
Compiler: Intel LLVM C++ 202202.0 / Intel(R) oneAPI DPC++/C++ Compiler 2022.2.1 (2022.2.1.20221020)
SIMD compiler directives: Enabled
Precision: mixed
----------------------------------------------------------
Generated 6 of 6 mixed pair_coeff terms from arithmetic mixing rule
WARNING: Bond/angle/dihedral extent > half of periodic box length (src/domain.cpp:940)
Per MPI rank memory allocation (min/avg/max) = 15.94 | 16.34 | 16.67 Mbytes
   Step          Temp          E_pair         E_mol          TotEng         Press          Volume    
    100578   2.3996376e-07  63.804054      23.838177      87.642231      49336.067      737.27646    
    100584   2.3996376e-07  64.160276      23.733303      87.893579      50365.168      736.91677    
WARNING: Bond/angle/dihedral extent > half of periodic box length (src/domain.cpp:940)
Loop time of 0.0876942 on 40 procs for 6 steps with 68 atoms

98.7% CPU use with 20 MPI tasks x 2 OpenMP threads

Minimization stats:
  Stopping criterion = linesearch alpha is zero
  Energy initial, next-to-last, final = 
      87.6422311719025    87.631293499649    87.631293499649
  Force two-norm initial, final = 37.566037 12.810793
  Force max component initial, final = 32.599017 6.8602031
  Final line search alpha, max atom move = 5.4302916e-11 3.7252903e-10
  Iterations, force evaluations = 6 196

MPI task timing breakdown:
Section |  min time  |  avg time  |  max time  |%varavg| %total
---------------------------------------------------------------
Pair    | 0.010568   | 0.017152   | 0.020521   |   2.2 | 19.56
Bond    | 0.00014652 | 0.0081725  | 0.012501   |   4.3 |  9.32
Neigh   | 0.0031973  | 0.003346   | 0.0035474  |   0.2 |  3.82
Comm    | 0.024963   | 0.033746   | 0.05024    |   3.9 | 38.48
Output  | 0          | 0          | 0          |   0.0 |  0.00
Modify  | 0.0013119  | 0.0040994  | 0.0054048  |   1.8 |  4.67
Other   |            | 0.02118    |            |       | 24.15

Nlocal:            3.4 ave           5 max           2 min
Histogram: 3 0 0 8 0 0 7 0 0 2
Nghost:         3710.8 ave        3822 max        3590 min
Histogram: 2 2 2 1 3 1 3 0 3 3
Neighs:         1993.5 ave        2985 max        1123 min
Histogram: 3 0 2 6 0 0 7 0 0 2

Total # of neighbors = 39870
Ave neighs/atom = 586.32353
Ave special neighs/atom = 4.9411765
Neighbor list builds = 12
Dangerous builds = 6
unfix           1
min_style       fire
variable        tempstp    equal $(step)
variable        tempstp    equal 100584
variable        CellMinStep equal ${tempstp}
variable        CellMinStep equal 100584
minimize        1.0e-15 1.0e-15 10000 100000
WARNING: Using 'neigh_modify every 1 delay 0 check yes' setting during minimization (src/min.cpp:187)
----------------------------------------------------------
Using INTEL Package without Coprocessor.
Compiler: Intel LLVM C++ 202202.0 / Intel(R) oneAPI DPC++/C++ Compiler 2022.2.1 (2022.2.1.20221020)
SIMD compiler directives: Enabled
Precision: mixed
----------------------------------------------------------
Generated 6 of 6 mixed pair_coeff terms from arithmetic mixing rule
  Parameters for fire: 
    dmax delaystep dtgrow dtshrink alpha0 alphashrink tmax tmin    integrator halfstepback 
     0.1        20    1.1      0.5   0.25        0.99   10 0.02 eulerimplicit          yes 
WARNING: Bond/angle/dihedral extent > half of periodic box length (src/domain.cpp:940)
Per MPI rank memory allocation (min/avg/max) = 14.81 | 15.22 | 15.55 Mbytes
   Step          Temp          E_pair         E_mol          TotEng         Press     
    100584   0              64.160276      23.733303      87.893578      50365.168    
    109336   7.7587529e-12  64.007344      23.856631      87.863974      49547.975    
WARNING: Bond/angle/dihedral extent > half of periodic box length (src/domain.cpp:940)
Loop time of 3.12081 on 40 procs for 8752 steps with 68 atoms

97.3% CPU use with 20 MPI tasks x 2 OpenMP threads

Minimization stats:
  Stopping criterion = max iterations with v.f negative
  Energy initial, next-to-last, final = 
      87.8935784988387   87.8640200419178   87.8639744818495
  Force two-norm initial, final = 4.3545696 0.013085467
  Force max component initial, final = 1.1228589 0.0038347706
  Final line search alpha, max atom move = 0 0
  Iterations, force evaluations = 8752 11100

MPI task timing breakdown:
Section |  min time  |  avg time  |  max time  |%varavg| %total
---------------------------------------------------------------
Pair    | 0.41071    | 0.66189    | 0.75861    |   9.6 | 21.21
Bond    | 0.0096086  | 0.3901     | 0.5838     |  29.1 | 12.50
Neigh   | 0          | 0          | 0          |   0.0 |  0.00
Comm    | 1.29       | 1.5521     | 2.2526     |  20.5 | 49.74
Output  | 0          | 0          | 0          |   0.0 |  0.00
Modify  | 0.16819    | 0.24901    | 0.29528    |   5.5 |  7.98
Other   |            | 0.2677     |            |       |  8.58

Nlocal:            3.4 ave           5 max           2 min
Histogram: 3 0 0 8 0 0 7 0 0 2
Nghost:         3710.8 ave        3822 max        3590 min
Histogram: 2 2 2 1 3 1 3 0 3 3
Neighs:         1994.1 ave        2986 max        1124 min
Histogram: 3 0 2 6 0 0 7 0 0 2

Total # of neighbors = 39882
Ave neighs/atom = 586.5
Ave special neighs/atom = 4.9411765
Neighbor list builds = 0
Dangerous builds = 0
variable        AtomMinStep equal $(step)
variable        AtomMinStep equal 109336
variable        temppe     equal $(pe)
variable        temppe     equal 87.863974481849467679
variable        min_E      equal abs(${prev_E}-${temppe})
variable        min_E      equal abs(87.6422311719025-${temppe})
variable        min_E      equal abs(87.6422311719025-87.8639744818495)
print           "${iter},${CellMinStep},${AtomMinStep},${AtomMinStep},$(pe),${min_E}" append p1_structure.min.csv screen no
if              "${min_E} < ${min_eval}" then "jump SELF break_min"
variable        prev_E     equal ${temppe}
variable        prev_E     equal 87.8639744818495
next            iter
jump            SELF loop_min
min_style       cg
fix             1 all box/relax tri 50000 vmax 0.05
minimize        1.0e-15 1.0e-15 10000 100000
WARNING: Using 'neigh_modify every 1 delay 0 check yes' setting during minimization (src/min.cpp:187)
----------------------------------------------------------
Using INTEL Package without Coprocessor.
Compiler: Intel LLVM C++ 202202.0 / Intel(R) oneAPI DPC++/C++ Compiler 2022.2.1 (2022.2.1.20221020)
SIMD compiler directives: Enabled
Precision: mixed
----------------------------------------------------------
Generated 6 of 6 mixed pair_coeff terms from arithmetic mixing rule
WARNING: Bond/angle/dihedral extent > half of periodic box length (src/domain.cpp:940)
Per MPI rank memory allocation (min/avg/max) = 15.94 | 16.34 | 16.67 Mbytes
   Step          Temp          E_pair         E_mol          TotEng         Press          Volume    
    109336   7.7587529e-12  64.007344      23.856631      87.863974      49547.975      736.91677    
    109370   7.7587529e-12  64.320989      23.819153      88.140142      50223.74       736.29085    
WARNING: Bond/angle/dihedral extent > half of periodic box length (src/domain.cpp:940)
Loop time of 0.0818812 on 40 procs for 34 steps with 68 atoms

96.4% CPU use with 20 MPI tasks x 2 OpenMP threads

Minimization stats:
  Stopping criterion = linesearch alpha is zero
  Energy initial, next-to-last, final = 
      87.8639744818493     87.68372315127     87.68372315127
  Force two-norm initial, final = 34.656659 7.2804017
  Force max component initial, final = 29.151485 4.2464908
  Final line search alpha, max atom move = 1.7545265e-10 7.4505806e-10
  Iterations, force evaluations = 34 171

MPI task timing breakdown:
Section |  min time  |  avg time  |  max time  |%varavg| %total
---------------------------------------------------------------
Pair    | 0.013147   | 0.015581   | 0.017973   |   1.2 | 19.03
Bond    | 0.00014041 | 0.0078151  | 0.011024   |   3.8 |  9.54
Neigh   | 0.0054859  | 0.0056685  | 0.0058649  |   0.2 |  6.92
Comm    | 0.023483   | 0.02968    | 0.041708   |   2.9 | 36.25
Output  | 0          | 0          | 0          |   0.0 |  0.00
Modify  | 0.0012505  | 0.0036141  | 0.0047905  |   1.4 |  4.41
Other   |            | 0.01952    |            |       | 23.84

Nlocal:            3.4 ave           5 max           2 min
Histogram: 3 0 0 8 0 0 7 0 0 2
Nghost:        3642.05 ave        3735 max        3561 min
Histogram: 3 1 2 3 1 2 3 2 1 2
Neighs:        1954.65 ave        2930 max        1105 min
Histogram: 3 0 2 6 0 0 7 0 0 2

Total # of neighbors = 39093
Ave neighs/atom = 574.89706
Ave special neighs/atom = 4.9411765
Neighbor list builds = 20
Dangerous builds = 16
unfix           1
min_style       fire
variable        tempstp    equal $(step)
variable        tempstp    equal 109370
variable        CellMinStep equal ${tempstp}
variable        CellMinStep equal 109370
minimize        1.0e-15 1.0e-15 10000 100000
WARNING: Using 'neigh_modify every 1 delay 0 check yes' setting during minimization (src/min.cpp:187)
----------------------------------------------------------
Using INTEL Package without Coprocessor.
Compiler: Intel LLVM C++ 202202.0 / Intel(R) oneAPI DPC++/C++ Compiler 2022.2.1 (2022.2.1.20221020)
SIMD compiler directives: Enabled
Precision: mixed
----------------------------------------------------------
Generated 6 of 6 mixed pair_coeff terms from arithmetic mixing rule
  Parameters for fire: 
    dmax delaystep dtgrow dtshrink alpha0 alphashrink tmax tmin    integrator halfstepback 
     0.1        20    1.1      0.5   0.25        0.99   10 0.02 eulerimplicit          yes 
WARNING: Bond/angle/dihedral extent > half of periodic box length (src/domain.cpp:940)
Per MPI rank memory allocation (min/avg/max) = 14.81 | 15.22 | 15.55 Mbytes
   Step          Temp          E_pair         E_mol          TotEng         Press     
    109370   0              64.320989      23.819153      88.140142      50223.74     
    119370   2.7802541e-09  64.117989      23.935829      88.053818      49765.804    
WARNING: Bond/angle/dihedral extent > half of periodic box length (src/domain.cpp:940)
Loop time of 2.99117 on 40 procs for 10000 steps with 68 atoms

97.1% CPU use with 20 MPI tasks x 2 OpenMP threads

Minimization stats:
  Stopping criterion = max iterations
  Energy initial, next-to-last, final = 
      88.1401419217075   88.0538054637635   88.0538181756207
  Force two-norm initial, final = 3.3829341 0.0095222477
  Force max component initial, final = 0.94366852 0.0034268696
  Final line search alpha, max atom move = 0 0
  Iterations, force evaluations = 10000 10520

MPI task timing breakdown:
Section |  min time  |  avg time  |  max time  |%varavg| %total
---------------------------------------------------------------
Pair    | 0.36142    | 0.6219     | 0.70775    |   9.9 | 20.79
Bond    | 0.0087663  | 0.37232    | 0.55252    |  28.5 | 12.45
Neigh   | 0          | 0          | 0          |   0.0 |  0.00
Comm    | 1.2107     | 1.4696     | 2.161      |  20.8 | 49.13
Output  | 3.8935e-05 | 4.0409e-05 | 4.9633e-05 |   0.0 |  0.00
Modify  | 0.1677     | 0.24382    | 0.29374    |   5.7 |  8.15
Other   |            | 0.2835     |            |       |  9.48

Nlocal:            3.4 ave           5 max           2 min
Histogram: 3 0 0 8 0 0 7 0 0 2
Nghost:        3708.55 ave        3848 max        3576 min
Histogram: 2 1 4 3 1 3 1 0 3 2
Neighs:        1996.35 ave        2992 max        1124 min
Histogram: 3 0 2 6 0 0 7 0 0 2

Total # of neighbors = 39927
Ave neighs/atom = 587.16176
Ave special neighs/atom = 4.9411765
Neighbor list builds = 0
Dangerous builds = 0
variable        AtomMinStep equal $(step)
variable        AtomMinStep equal 119370
variable        temppe     equal $(pe)
variable        temppe     equal 88.053818175620719444
variable        min_E      equal abs(${prev_E}-${temppe})
variable        min_E      equal abs(87.8639744818495-${temppe})
variable        min_E      equal abs(87.8639744818495-88.0538181756207)
print           "${iter},${CellMinStep},${AtomMinStep},${AtomMinStep},$(pe),${min_E}" append p1_structure.min.csv screen no
if              "${min_E} < ${min_eval}" then "jump SELF break_min"
variable        prev_E     equal ${temppe}
variable        prev_E     equal 88.0538181756207
next            iter
jump            SELF loop_min
min_style       cg
fix             1 all box/relax tri 50000 vmax 0.05
minimize        1.0e-15 1.0e-15 10000 100000
WARNING: Using 'neigh_modify every 1 delay 0 check yes' setting during minimization (src/min.cpp:187)
----------------------------------------------------------
Using INTEL Package without Coprocessor.
Compiler: Intel LLVM C++ 202202.0 / Intel(R) oneAPI DPC++/C++ Compiler 2022.2.1 (2022.2.1.20221020)
SIMD compiler directives: Enabled
Precision: mixed
----------------------------------------------------------
Generated 6 of 6 mixed pair_coeff terms from arithmetic mixing rule
WARNING: Bond/angle/dihedral extent > half of periodic box length (src/domain.cpp:940)
Per MPI rank memory allocation (min/avg/max) = 15.94 | 16.34 | 16.67 Mbytes
   Step          Temp          E_pair         E_mol          TotEng         Press          Volume    
    119370   2.7802541e-09  64.117989      23.935829      88.053818      49765.804      736.29085    
    119378   2.7802541e-09  64.024842      23.859796      87.884638      50251.347      736.48705    
WARNING: Bond/angle/dihedral extent > half of periodic box length (src/domain.cpp:940)
Loop time of 0.052546 on 40 procs for 8 steps with 68 atoms

95.7% CPU use with 20 MPI tasks x 2 OpenMP threads

Minimization stats:
  Stopping criterion = linesearch alpha is zero
  Energy initial, next-to-last, final = 
      88.0538181756209   88.0277052201951   88.0277052201951
  Force two-norm initial, final = 30.819591 9.1678715
  Force max component initial, final = 25.380837 5.5453365
  Final line search alpha, max atom move = 1.3435623e-10 7.4505051e-10
  Iterations, force evaluations = 8 113

MPI task timing breakdown:
[...]
      87.8740176482244   87.8739728338513   87.8739891358016
  Force two-norm initial, final = 0.010958937 0.010179064
  Force max component initial, final = 0.002673147 0.0028624329
  Final line search alpha, max atom move = 0 0
  Iterations, force evaluations = 2089 4114

MPI task timing breakdown:
Section |  min time  |  avg time  |  max time  |%varavg| %total
---------------------------------------------------------------
Pair    | 0.22531    | 0.2527     | 0.2865     |   3.9 | 21.72
Bond    | 0.0030948  | 0.14643    | 0.20972    |  17.9 | 12.58
Neigh   | 0          | 0          | 0          |   0.0 |  0.00
Comm    | 0.48426    | 0.58963    | 0.76719    |  11.2 | 50.67
Output  | 0          | 0          | 0          |   0.0 |  0.00
Modify  | 0.08124    | 0.09718    | 0.11863    |   3.8 |  8.35
Other   |            | 0.07766    |            |       |  6.67

Nlocal:            3.4 ave           5 max           2 min
Histogram: 4 0 0 7 0 0 6 0 0 3
Nghost:         3754.3 ave        3838 max        3633 min
Histogram: 2 1 1 3 2 0 1 1 5 4
Neighs:         2001.5 ave        3007 max        1153 min
Histogram: 4 0 2 5 0 0 6 0 0 3

Total # of neighbors = 40030
Ave neighs/atom = 588.67647
Ave special neighs/atom = 4.9411765
Neighbor list builds = 0
Dangerous builds = 0
variable        AtomMinStep equal $(step)
variable        AtomMinStep equal 529538
variable        temppe     equal $(pe)
variable        temppe     equal 87.873989135801593875
variable        min_E      equal abs(${prev_E}-${temppe})
variable        min_E      equal abs(87.8740176482245-${temppe})
variable        min_E      equal abs(87.8740176482245-87.8739891358016)
print           "${iter},${CellMinStep},${AtomMinStep},${AtomMinStep},$(pe),${min_E}" append p1_structure.min.csv screen no
if              "${min_E} < ${min_eval}" then "jump SELF break_min"
variable        prev_E     equal ${temppe}
variable        prev_E     equal 87.8739891358016
next            iter
jump            SELF loop_min
min_style       cg
fix             1 all box/relax tri 50000 vmax 0.05
minimize        1.0e-15 1.0e-15 10000 100000
----------------------------------------------------------
Using INTEL Package without Coprocessor.
Compiler: Intel LLVM C++ 202202.0 / Intel(R) oneAPI DPC++/C++ Compiler 2022.2.1 (2022.2.1.20221020)
SIMD compiler directives: Enabled
Precision: mixed
----------------------------------------------------------
Generated 6 of 6 mixed pair_coeff terms from arithmetic mixing rule
Per MPI rank memory allocation (min/avg/max) = 15.96 | 16.35 | 16.69 Mbytes
   Step          Temp          E_pair         E_mol          TotEng         Press          Volume    
    529538   2.8232558e-12  63.331994      24.541995      87.873989      49882.18       735.00837    
    529539   2.8232558e-12  63.331994      24.541995      87.873989      49882.18       735.00837    
Loop time of 0.0223925 on 40 procs for 1 steps with 68 atoms

99.9% CPU use with 20 MPI tasks x 2 OpenMP threads

Minimization stats:
  Stopping criterion = linesearch alpha is zero
  Energy initial, next-to-last, final = 
      87.8739891358016   87.8739891358016   87.8739891358016
  Force two-norm initial, final = 11.579631 11.579631
  Force max component initial, final = 9.0140985 9.0140985
  Final line search alpha, max atom move = 8.265475e-11 7.4505806e-10
  Iterations, force evaluations = 1 49

MPI task timing breakdown:
Section |  min time  |  avg time  |  max time  |%varavg| %total
---------------------------------------------------------------
Pair    | 0.0040862  | 0.0047151  | 0.0054702  |   0.6 | 21.06
Bond    | 4.0636e-05 | 0.0022484  | 0.0031122  |   2.0 | 10.04
Neigh   | 0.00050974 | 0.00052964 | 0.00055051 |   0.0 |  2.37
Comm    | 0.0065249  | 0.0083069  | 0.011793   |   1.6 | 37.10
Output  | 0          | 0          | 0          |   0.0 |  0.00
Modify  | 0.00035028 | 0.0010965  | 0.0015056  |   0.9 |  4.90
Other   |            | 0.005496   |            |       | 24.54

Nlocal:            3.4 ave           5 max           2 min
Histogram: 4 0 0 7 0 0 6 0 0 3
Nghost:         3764.3 ave        3833 max        3666 min
Histogram: 2 2 1 1 0 4 1 1 5 3
Neighs:         2002.4 ave        3004 max        1154 min
Histogram: 4 0 2 5 0 0 6 0 0 3

Total # of neighbors = 40048
Ave neighs/atom = 588.94118
Ave special neighs/atom = 4.9411765
Neighbor list builds = 2
Dangerous builds = 1
unfix           1
min_style       fire
variable        tempstp    equal $(step)
variable        tempstp    equal 529539
variable        CellMinStep equal ${tempstp}
variable        CellMinStep equal 529539
minimize        1.0e-15 1.0e-15 10000 100000
----------------------------------------------------------
Using INTEL Package without Coprocessor.
Compiler: Intel LLVM C++ 202202.0 / Intel(R) oneAPI DPC++/C++ Compiler 2022.2.1 (2022.2.1.20221020)
SIMD compiler directives: Enabled
Precision: mixed
----------------------------------------------------------
Generated 6 of 6 mixed pair_coeff terms from arithmetic mixing rule
  Parameters for fire: 
    dmax delaystep dtgrow dtshrink alpha0 alphashrink tmax tmin    integrator halfstepback 
     0.1        20    1.1      0.5   0.25        0.99   10 0.02 eulerimplicit          yes 
Per MPI rank memory allocation (min/avg/max) = 14.84 | 15.23 | 15.56 Mbytes
   Step          Temp          E_pair         E_mol          TotEng         Press     
    529539   0              63.331994      24.541995      87.873989      49882.18     
    531614   4.4437049e-12  63.331998      24.54202       87.874018      49882.308    
Loop time of 1.15541 on 40 procs for 2075 steps with 68 atoms

96.9% CPU use with 20 MPI tasks x 2 OpenMP threads

Minimization stats:
  Stopping criterion = max iterations with v.f negative
  Energy initial, next-to-last, final = 
      87.8739891358015   87.8739339819126   87.8740179406274
  Force two-norm initial, final = 0.010179064 0.011529321
  Force max component initial, final = 0.0028624329 0.0043663755
  Final line search alpha, max atom move = 0 0
  Iterations, force evaluations = 2075 4100

MPI task timing breakdown:
Section |  min time  |  avg time  |  max time  |%varavg| %total
---------------------------------------------------------------
Pair    | 0.22341    | 0.24895    | 0.28514    |   3.9 | 21.55
Bond    | 0.0030053  | 0.14391    | 0.20734    |  17.6 | 12.46
Neigh   | 0          | 0          | 0          |   0.0 |  0.00
Comm    | 0.48569    | 0.59123    | 0.76464    |  11.0 | 51.17
Output  | 0          | 0          | 0          |   0.0 |  0.00
Modify  | 0.079639   | 0.094911   | 0.11588    |   4.1 |  8.21
Other   |            | 0.07642    |            |       |  6.61

Nlocal:            3.4 ave           5 max           2 min
Histogram: 4 0 0 7 0 0 6 0 0 3
Nghost:         3754.3 ave        3838 max        3633 min
Histogram: 2 1 1 3 2 0 1 1 5 4
Neighs:         2001.5 ave        3007 max        1153 min
Histogram: 4 0 2 5 0 0 6 0 0 3

Total # of neighbors = 40030
Ave neighs/atom = 588.67647
Ave special neighs/atom = 4.9411765
Neighbor list builds = 0
Dangerous builds = 0
variable        AtomMinStep equal $(step)
variable        AtomMinStep equal 531614
variable        temppe     equal $(pe)
variable        temppe     equal 87.874017940627396683
variable        min_E      equal abs(${prev_E}-${temppe})
variable        min_E      equal abs(87.8739891358016-${temppe})
variable        min_E      equal abs(87.8739891358016-87.8740179406274)
print           "${iter},${CellMinStep},${AtomMinStep},${AtomMinStep},$(pe),${min_E}" append p1_structure.min.csv screen no
if              "${min_E} < ${min_eval}" then "jump SELF break_min"
variable        prev_E     equal ${temppe}
variable        prev_E     equal 87.8740179406274
next            iter
jump            SELF loop_min
min_style       cg
fix             1 all box/relax tri 50000 vmax 0.05
minimize        1.0e-15 1.0e-15 10000 100000
----------------------------------------------------------
Using INTEL Package without Coprocessor.
Compiler: Intel LLVM C++ 202202.0 / Intel(R) oneAPI DPC++/C++ Compiler 2022.2.1 (2022.2.1.20221020)
SIMD compiler directives: Enabled
Precision: mixed
----------------------------------------------------------
Generated 6 of 6 mixed pair_coeff terms from arithmetic mixing rule
Per MPI rank memory allocation (min/avg/max) = 15.96 | 16.35 | 16.69 Mbytes
   Step          Temp          E_pair         E_mol          TotEng         Press          Volume    
    531614   4.4437049e-12  63.331998      24.54202       87.874018      49882.308      735.00837    
    531616   4.4437049e-12  63.332026      24.541964      87.873991      49882.157      735.00837    
Loop time of 0.0417988 on 40 procs for 2 steps with 68 atoms

101.0% CPU use with 20 MPI tasks x 2 OpenMP threads

Minimization stats:
  Stopping criterion = linesearch alpha is zero
  Energy initial, next-to-last, final = 
      87.8740179406273   87.8739894434672   87.8739894434672
  Force two-norm initial, final = 11.584848 11.587574
  Force max component initial, final = 9.0170831 9.021369
  Final line search alpha, max atom move = 8.2568653e-11 7.4488229e-10
  Iterations, force evaluations = 2 93

MPI task timing breakdown:
Section |  min time  |  avg time  |  max time  |%varavg| %total
---------------------------------------------------------------
Pair    | 0.0075429  | 0.0087864  | 0.0098481  |   0.7 | 21.02
Bond    | 8.1901e-05 | 0.0043172  | 0.0059599  |   2.8 | 10.33
Neigh   | 0.0010251  | 0.0010489  | 0.0010771  |   0.0 |  2.51
Comm    | 0.012182   | 0.015536   | 0.022044   |   2.2 | 37.17
Output  | 0          | 0          | 0          |   0.0 |  0.00
Modify  | 0.00069497 | 0.0020941  | 0.0026909  |   1.1 |  5.01
Other   |            | 0.01002    |            |       | 23.96

Nlocal:            3.4 ave           5 max           2 min
Histogram: 4 0 0 7 0 0 6 0 0 3
Nghost:         3764.3 ave        3833 max        3666 min
Histogram: 2 2 1 1 0 4 1 1 5 3
Neighs:         2002.4 ave        3004 max        1154 min
Histogram: 4 0 2 5 0 0 6 0 0 3

Total # of neighbors = 40048
Ave neighs/atom = 588.94118
Ave special neighs/atom = 4.9411765
Neighbor list builds = 4
Dangerous builds = 1
unfix           1
min_style       fire
variable        tempstp    equal $(step)
variable        tempstp    equal 531616
variable        CellMinStep equal ${tempstp}
variable        CellMinStep equal 531616
minimize        1.0e-15 1.0e-15 10000 100000
----------------------------------------------------------
Using INTEL Package without Coprocessor.
Compiler: Intel LLVM C++ 202202.0 / Intel(R) oneAPI DPC++/C++ Compiler 2022.2.1 (2022.2.1.20221020)
SIMD compiler directives: Enabled
Precision: mixed
----------------------------------------------------------
Generated 6 of 6 mixed pair_coeff terms from arithmetic mixing rule
  Parameters for fire: 
    dmax delaystep dtgrow dtshrink alpha0 alphashrink tmax tmin    integrator halfstepback 
     0.1        20    1.1      0.5   0.25        0.99   10 0.02 eulerimplicit          yes 
Per MPI rank memory allocation (min/avg/max) = 14.84 | 15.23 | 15.56 Mbytes
   Step          Temp          E_pair         E_mol          TotEng         Press     
    531616   0              63.332026      24.541964      87.873991      49882.157    
    533701   4.33681e-12    63.331991      24.542031      87.874023      49882.399    
Loop time of 1.1466 on 40 procs for 2085 steps with 68 atoms

97.5% CPU use with 20 MPI tasks x 2 OpenMP threads

Minimization stats:
  Stopping criterion = max iterations with v.f negative
  Energy initial, next-to-last, final = 
      87.8739907843398   87.8739531467056   87.8740226531002
  Force two-norm initial, final = 0.0099103946 0.01123787
  Force max component initial, final = 0.0036691986 0.0043682548
  Final line search alpha, max atom move = 0 0
  Iterations, force evaluations = 2085 4110

MPI task timing breakdown:
Section |  min time  |  avg time  |  max time  |%varavg| %total
---------------------------------------------------------------
Pair    | 0.22443    | 0.25204    | 0.27938    |   3.6 | 21.98
Bond    | 0.0031151  | 0.14502    | 0.20645    |  17.6 | 12.65
Neigh   | 0          | 0          | 0          |   0.0 |  0.00
Comm    | 0.49469    | 0.57799    | 0.75552    |  10.2 | 50.41
Output  | 0          | 0          | 0          |   0.0 |  0.00
Modify  | 0.080329   | 0.097702   | 0.1243     |   3.8 |  8.52
Other   |            | 0.07385    |            |       |  6.44

Nlocal:            3.4 ave           5 max           2 min
Histogram: 4 0 0 7 0 0 6 0 0 3
Nghost:         3754.3 ave        3838 max        3633 min
Histogram: 2 1 1 3 2 0 1 1 5 4
Neighs:         2001.5 ave        3007 max        1153 min
Histogram: 4 0 2 5 0 0 6 0 0 3

Total # of neighbors = 40030
Ave neighs/atom = 588.67647
Ave special neighs/atom = 4.9411765
Neighbor list builds = 0
Dangerous builds = 0
variable        AtomMinStep equal $(step)
variable        AtomMinStep equal 533701
variable        temppe     equal $(pe)
variable        temppe     equal 87.874022653100183788
variable        min_E      equal abs(${prev_E}-${temppe})
variable        min_E      equal abs(87.8740179406274-${temppe})
variable        min_E      equal abs(87.8740179406274-87.8740226531002)
print           "${iter},${CellMinStep},${AtomMinStep},${AtomMinStep},$(pe),${min_E}" append p1_structure.min.csv screen no
if              "${min_E} < ${min_eval}" then "jump SELF break_min"
variable        prev_E     equal ${temppe}
variable        prev_E     equal 87.8740226531002
next            iter
jump            SELF loop_min
min_style       cg
fix             1 all box/relax tri 50000 vmax 0.05
minimize        1.0e-15 1.0e-15 10000 100000
----------------------------------------------------------
Using INTEL Package without Coprocessor.
Compiler: Intel LLVM C++ 202202.0 / Intel(R) oneAPI DPC++/C++ Compiler 2022.2.1 (2022.2.1.20221020)
SIMD compiler directives: Enabled
Precision: mixed
----------------------------------------------------------
Generated 6 of 6 mixed pair_coeff terms from arithmetic mixing rule
Per MPI rank memory allocation (min/avg/max) = 15.96 | 16.35 | 16.69 Mbytes
   Step          Temp          E_pair         E_mol          TotEng         Press          Volume    
    533701   4.33681e-12    63.331991      24.542031      87.874023      49882.399      735.00837    
    533707   4.33681e-12    63.331994      24.541964      87.873958      49882.095      735.00837    
Loop time of 0.129046 on 40 procs for 6 steps with 68 atoms

97.1% CPU use with 20 MPI tasks x 2 OpenMP threads

Minimization stats:
  Stopping criterion = linesearch alpha is zero
  Energy initial, next-to-last, final = 
      87.8740226531002   87.8739543424584   87.8739543424584
  Force two-norm initial, final = 11.582928 11.586899
  Force max component initial, final = 9.0144761 9.0219893
  Final line search alpha, max atom move = 8.2581193e-11 7.4504663e-10
  Iterations, force evaluations = 6 287

MPI task timing breakdown:
Section |  min time  |  avg time  |  max time  |%varavg| %total
---------------------------------------------------------------
Pair    | 0.023313   | 0.02741    | 0.030743   |   1.2 | 21.24
Bond    | 0.00024768 | 0.013172   | 0.018133   |   4.9 | 10.21
Neigh   | 0.0032212  | 0.0033798  | 0.003495   |   0.1 |  2.62
Comm    | 0.038307   | 0.047591   | 0.068172   |   3.6 | 36.88
Output  | 0          | 0          | 0          |   0.0 |  0.00
Modify  | 0.0022018  | 0.0066172  | 0.0083872  |   1.9 |  5.13
Other   |            | 0.03088    |            |       | 23.93

Nlocal:            3.4 ave           5 max           2 min
Histogram: 4 0 0 7 0 0 6 0 0 3
Nghost:         3764.3 ave        3833 max        3666 min
Histogram: 2 2 1 1 0 4 1 1 5 3
Neighs:         2002.4 ave        3004 max        1154 min
Histogram: 4 0 2 5 0 0 6 0 0 3

Total # of neighbors = 40048
Ave neighs/atom = 588.94118
Ave special neighs/atom = 4.9411765
Neighbor list builds = 12
Dangerous builds = 1
unfix           1
min_style       fire
variable        tempstp    equal $(step)
variable        tempstp    equal 533707
variable        CellMinStep equal ${tempstp}
variable        CellMinStep equal 533707
minimize        1.0e-15 1.0e-15 10000 100000
----------------------------------------------------------
Using INTEL Package without Coprocessor.
Compiler: Intel LLVM C++ 202202.0 / Intel(R) oneAPI DPC++/C++ Compiler 2022.2.1 (2022.2.1.20221020)
SIMD compiler directives: Enabled
Precision: mixed
----------------------------------------------------------
Generated 6 of 6 mixed pair_coeff terms from arithmetic mixing rule
  Parameters for fire: 
    dmax delaystep dtgrow dtshrink alpha0 alphashrink tmax tmin    integrator halfstepback 
     0.1        20    1.1      0.5   0.25        0.99   10 0.02 eulerimplicit          yes 
Per MPI rank memory allocation (min/avg/max) = 14.84 | 15.23 | 15.56 Mbytes
   Step          Temp          E_pair         E_mol          TotEng         Press     
    533707   0              63.331994      24.541964      87.873958      49882.095    
    536200   4.3674358e-12  63.332084      24.541939      87.874023      49882.286    
Loop time of 1.29501 on 40 procs for 2493 steps with 68 atoms

98.0% CPU use with 20 MPI tasks x 2 OpenMP threads

Minimization stats:
  Stopping criterion = max iterations with v.f negative
  Energy initial, next-to-last, final = 
      87.8739576971218   87.8740245788089   87.8740227522352
  Force two-norm initial, final = 0.0097663426 0.010453694
  Force max component initial, final = 0.0043037608 0.0033936676
  Final line search alpha, max atom move = 0 0
  Iterations, force evaluations = 2493 4537

MPI task timing breakdown:
Section |  min time  |  avg time  |  max time  |%varavg| %total
---------------------------------------------------------------
Pair    | 0.24228    | 0.27533    | 0.31027    |   4.1 | 21.26
Bond    | 0.0033462  | 0.16208    | 0.2332     |  18.7 | 12.52
Neigh   | 0          | 0          | 0          |   0.0 |  0.00
Comm    | 0.55239    | 0.65513    | 0.85532    |  11.3 | 50.59
Output  | 0          | 0          | 0          |   0.0 |  0.00
Modify  | 0.089663   | 0.11234    | 0.13483    |   4.1 |  8.67
Other   |            | 0.09014    |            |       |  6.96

Nlocal:            3.4 ave           5 max           2 min
Histogram: 4 0 0 7 0 0 6 0 0 3
Nghost:         3754.3 ave        3838 max        3633 min
Histogram: 2 1 1 3 2 0 1 1 5 4
Neighs:         2001.5 ave        3007 max        1153 min
Histogram: 4 0 2 5 0 0 6 0 0 3

Total # of neighbors = 40030
Ave neighs/atom = 588.67647
Ave special neighs/atom = 4.9411765
Neighbor list builds = 0
Dangerous builds = 0
variable        AtomMinStep equal $(step)
variable        AtomMinStep equal 536200
variable        temppe     equal $(pe)
variable        temppe     equal 87.874022752235163125
variable        min_E      equal abs(${prev_E}-${temppe})
variable        min_E      equal abs(87.8740226531002-${temppe})
variable        min_E      equal abs(87.8740226531002-87.8740227522352)
print           "${iter},${CellMinStep},${AtomMinStep},${AtomMinStep},$(pe),${min_E}" append p1_structure.min.csv screen no
if              "${min_E} < ${min_eval}" then "jump SELF break_min"
jump SELF break_min
undump   structure_xyzmov

print " "
 
print "----------------"
----------------
print "Cell Data"
Cell Data
print "----------------"
----------------
print " "
 

variable x0 equal xlo
variable x1 equal xhi
variable y0 equal ylo
variable y1 equal yhi
variable z0 equal zlo
variable z1 equal zhi
variable XY equal xy
variable XZ equal xz
variable YZ equal yz

print "x0 = ${x0}"
x0 = 0.0639322266088661
print "x1 = ${x1}"
x1 = 8.86066777339115
print "y0 = ${y0}"
y0 = 1.14345454276321
print "y1 = ${y1}"
y1 = 4.19395245723679
print "z0 = ${z0}"
z0 = 1.6770967812316
print "z1 = ${z1}"
z1 = 29.0676002187685
print "XY = ${XY}"
XY = -1.24206180160282
print "XZ = ${XZ}"
XZ = -15.6849677463024
print "YZ = ${YZ}"
YZ = -2.04342547640997
Total wall time: 0:03:12
