68
 Atoms. Timestep: 0
C 8.44121 3.04563 0.073658
C -2.33026 0.043485 28.8856
C -11.4186 0.008185 30.2704
C -4.78229 -0.710984 29.9816
C -3.39258 -0.298684 28.0489
C -4.61856 -0.676012 28.5968
C -4.39637 -0.711288 18.9493
C -3.00654 -0.298637 17.0166
C -3.17031 -0.333937 18.4013
C -5.45857 -1.05311 18.1126
C -4.06886 -0.640806 16.1799
C -5.29484 -1.01813 16.7278
C -2.80311 1.89217 24.4281
C -1.41328 2.30482 22.4954
C -1.57706 2.26952 23.8801
C -3.86532 1.55035 23.5914
C -2.47561 1.96265 21.6587
C -3.70158 1.58532 22.2066
C -1.71989 1.81064 5.82095
C -0.330056 2.22329 3.8882
C -0.493833 2.18799 5.27296
C 6.14251 1.46882 4.98421
C 7.53222 1.88112 3.05151
C 6.30624 1.5038 3.59944
H 1.57707 3.69161 0.169348
H -3.29139 -0.279308 26.9659
H -2.33591 -0.065312 19.045
H -3.96767 -0.62143 15.0969
H -0.742658 2.53814 24.5238
H -2.37442 1.98203 20.5757
H 0.34057 2.45662 5.91664
H 7.63341 1.9005 1.96851
N 8.33309 3.02842 1.49828
N -10.0071 0.428132 28.3274
N -5.64394 -1.00618 27.7247
N -6.44739 -1.26516 27.0411
N -4.50449 -0.728504 20.3739
N -1.75881 0.08601 16.4584
N 2.60439 -1.34831 15.8557
N 1.80094 -1.60728 15.1721
N -2.91124 1.87495 25.8527
N -0.165555 2.68947 21.9372
N -4.72696 1.25515 21.3345
N -5.53041 0.996172 20.6509
N -1.82801 1.79343 7.24557
N 0.917672 2.60794 3.33002
N 5.28087 1.17362 2.72732
N 4.47742 0.914646 2.04372
O -5.91624 -1.05999 30.4781
O 0.407298 3.34892 2.17889
O 7.2433 2.69385 2.01245
O -9.88151 0.453787 27.0793
O -9.06441 0.732423 29.0976
O -6.59252 -1.40211 18.609
O -3.50568 -0.408 21.0546
O -5.59428 -1.06307 20.8881
O -1.63319 0.111665 15.2102
O -0.816085 0.390301 17.2286
O -4.99926 1.20134 24.0878
O -1.91243 2.19546 26.5333
O -4.00103 1.54039 26.3669
O -0.039936 2.71512 20.689
O -8.49492 -2.34365 22.7074
O 5.00856 1.11982 5.48067
O -0.829203 2.11393 7.92618
O -2.9178 1.45886 7.75974
O 1.04329 2.63359 2.08186
O 1.8604 2.91223 4.10024
68
 Atoms. Timestep: 36
C -4.08507 -2.0752 31.087
C -2.70624 -1.62457 29.1698
C -12.9471 -1.76803 30.5575
C -5.11275 -2.34172 30.2331
C -3.78494 -1.86289 28.3296
C -5.03223 -2.20329 28.8916
C -4.84779 -1.47119 19.0267
C -3.51496 -0.983688 17.031
C -3.65023 -1.11399 18.4366
C -5.90969 -1.67754 18.173
C -4.607 -1.20769 16.1889
C -5.83765 -1.56084 16.7962
C -4.2455 0.211733 24.6493
C -2.91105 0.725668 22.656
C -3.04524 0.557426 24.0557
C -5.30962 0.0028584 23.8028
C -4.04433 0.67899 21.836
C -5.25685 0.227336 22.4401
C -3.3075 1.55893 5.6481
C -1.88511 1.81862 3.69529
C -2.09866 1.8978 5.0642
C 5.71234 1.32934 4.79297
C 7.16644 1.33733 2.91488
C 5.83112 1.29375 3.4412
H -0.656023 3.49694 -0.250547
H -3.67263 -1.80387 27.2856
H -2.83564 -0.950723 19.0889
H -4.49138 -1.10606 15.1228
H -2.23274 0.71887 24.7014
H -3.88946 0.643163 20.7615
H -1.28251 2.08291 5.7035
H 7.33802 1.11462 1.92597
N 7.11149 3.43589 0.922919
N -11.5477 -1.24294 28.6077
N -6.26147 -2.47724 28.2472
N -6.65801 -2.49242 27.0352
N -4.96025 -1.69788 20.4677
N -2.26755 -0.623628 16.4555
N 3.0248 -1.85109 16.1314
N 2.6495 -1.85001 14.8978
N -4.36127 0.106874 26.0897
N -1.66162 1.0454 22.0685
N -6.52836 0.0475201 21.7802
N -6.90603 -0.0304831 20.5435
N -3.43396 1.42432 7.08272
N -0.581988 2.18412 3.14802
N 4.58246 1.10189 2.74013
N 4.20611 1.1173 1.50703
O -6.29259 -2.6752 30.7019
O -2.11091 3.93734 1.66602
O 5.89368 3.30347 1.39091
O -11.3897 -1.12646 27.324
O -10.5378 -1.03256 29.3949
O -7.05955 -2.02169 18.6761
O -3.86116 -1.72868 21.1628
O -5.99089 -2.24104 21.0373
O -2.12214 -0.497126 15.1706
O -1.25369 -0.413968 17.2392
O -6.46129 -0.341619 24.3012
O -3.64802 0.401154 26.8372
O -5.47734 -0.198273 26.69
O -1.52222 1.17532 20.7811
O -8.47381 -3.01839 22.8488
O 4.55042 1.01552 5.28348
O -2.39977 1.6319 7.83901
O 5.54716 1.08983 7.66785
O -0.314263 2.09784 1.86897
O 0.340449 2.63175 3.93061
68
 Atoms. Timestep: 10057
C 6.96889 3.57429 -0.697098
C -12.6316 -1.62035 30.5663
C -1.50776 3.57254 -0.835875
C -5.56549 -1.60976 30.7918
C -3.55488 -2.14801 29.571
C -4.9522 -2.13357 29.6706
C -5.27854 -0.946872 17.6283
C -3.41228 -0.105881 16.3074
C -3.88549 -0.76353 17.4351
C -6.16934 -0.485886 16.6762
C -4.34468 0.371163 15.391
C -5.71115 0.16442 15.5638
C -3.51803 -0.600696 24.472
C -3.43901 0.0316895 22.1018
C -2.79874 -0.241651 23.3236
C -4.91393 -0.721266 24.3751
C -4.8256 -0.0732955 22.0511
C -5.55902 -0.463749 23.1744
C -3.27781 1.52635 6.40131
C -2.00867 2.3549 4.49802
C -2.08583 1.97124 5.85266
C 5.46755 1.42924 5.55309
C -3.13824 2.26701 3.68879
C 5.54471 1.79653 4.20191
H -0.879176 3.98918 -0.068268
H -3.08328 -2.63963 28.7371
H -3.18902 -1.21099 18.1096
H -3.98096 0.898774 14.5337
H -1.72973 -0.153668 23.3747
H -5.32321 0.137568 21.1322
H -1.21753 2.05163 6.48225
H 6.79891 2.55802 2.65775
N 8.47839 1.02529 0.435778
N -11.1926 -1.65772 30.4806
N -5.77419 -2.67718 28.68
N -7.32524 -0.077949 27.6088
N -5.75634 -1.67582 18.7477
N -2.00268 0.0515921 16.0883
N -6.65376 0.68041 14.6586
N -6.24657 1.33667 13.5756
N -2.81793 -0.865689 25.7048
N -2.69738 0.423016 20.9208
N -6.95953 -0.599492 23.117
N -7.63885 -0.391827 21.954
N -3.29052 1.13469 7.7963
N -0.791867 2.84912 3.95415
N 4.40233 1.67818 3.37337
N 4.46208 1.95955 2.04148
O -6.87457 -1.56234 30.8353
O -0.631976 1.67685 1.23277
O 7.19789 0.945348 0.655351
O -10.6237 -2.1424 29.4119
O -10.4559 -1.22507 31.4736
O 2.40973 -0.600246 16.8296
O -5.15141 -1.84094 19.7656
O -8.98607 0.90047 18.7451
O -1.58152 0.718309 15.056
O -1.1511 -0.46924 16.9297
O -5.61671 -1.10558 25.4132
O -1.57244 -1.22931 25.6907
O -3.38875 -0.654263 26.8589
O -3.3199 0.844202 19.8485
O -1.3915 0.378642 20.9045
O 4.34299 0.966308 6.02661
O -2.18344 0.799559 8.4051
O -4.38841 1.20601 8.50222
O -0.801279 3.53616 2.85581
O 0.335864 2.653 4.57886
68
 Atoms. Timestep: 20078
C -5.63101 -1.84322 31.2377
C -3.30889 -1.69687 30.0653
C -4.04207 -1.63076 31.2401
C -6.07586 -2.0348 30.0218
C -3.97255 -1.91158 28.8624
C -5.35013 -2.10578 28.8466
C -5.22967 -0.984466 16.8405
C -3.25682 -0.587406 15.5008
C -3.86055 -0.782288 16.7388
C -6.0129 -0.936689 15.6796
C -4.04449 -0.540988 14.3578
C -5.41814 -0.734169 14.443
C -0.575469 -2.24742 24.1895
C -1.03873 -1.84187 21.847
C -0.151716 -1.89798 22.9091
C -3.66577 0.270518 24.4075
C -4.11267 0.666464 22.0774
C -4.55872 0.327513 23.3529
C -2.97879 1.64254 7.77122
C -1.61758 1.84552 5.77424
C -1.74556 1.85535 7.15722
C 5.44357 1.42688 6.96055
C -2.7466 1.6487 4.98935
C 5.56523 1.43044 5.57958
H -1.41126 3.15482 0.299589
H -3.41567 -1.99435 27.9524
H -3.26198 -0.852922 17.6222
H -3.58408 -0.387926 13.4025
H -8.66516 -1.71398 22.7224
H -4.81528 0.754011 21.2782
H -0.874884 2.00495 7.76306
H 6.89508 1.64945 3.92437
N 5.54214 2.91156 0.607238
N -11.4397 -1.54086 30.0983
N -6.03509 -2.37022 27.6403
N -5.38419 -2.53508 26.4898
N -5.81763 -1.22595 18.1262
N -1.84027 -0.426781 15.4073
N 3.32284 -0.671746 13.2926
N 3.8554 -0.437887 12.0854
N -9.15864 -2.30484 25.2466
N -0.57887 -1.47815 20.5412
N -5.92057 0.059139 23.6026
N -6.83359 0.148753 22.6308
N -3.0623 1.65314 9.20895
N -0.335848 2.04227 5.17124
N 4.41468 1.22989 4.79047
N 4.48322 1.19193 3.45482
O -7.37799 -2.14039 29.9697
O 6.12064 3.46294 1.65491
O 4.33232 2.41316 0.715503
O -10.7594 -1.53355 28.9924
O -10.8118 -1.46832 31.2385
O 2.23408 -1.03838 15.7459
O -5.18804 -0.846342 19.2116
O 0.882061 0.873757 18.2253
O -1.27653 -0.210989 14.2521
O -1.09853 -0.546162 16.4683
O -4.1083 -0.0716698 25.5938
O -7.89133 -2.21138 24.9721
O -9.52847 -2.37778 26.491
O -1.4047 -1.43409 19.539
O 0.675254 -1.18336 20.3413
O 4.2591 1.21769 7.48475
O -1.97567 1.75522 9.92278
O -4.20708 1.57966 9.82146
O -0.231766 2.21296 3.88444
O 0.739416 2.05229 5.90276
68
 Atoms. Timestep: 30148
C 6.52058 3.10319 0.574554
C -12.4039 -1.11187 29.7423
C -1.21552 3.36655 0.483736
C -6.04964 -1.59932 29.8872
C -4.04962 -1.26675 28.5764
C -5.4202 -1.53191 28.6475
C -6.72998 1.32457 16.1096
C -4.70076 1.68197 14.8194
C -5.35936 1.58836 16.0455
C 1.65307 1.19025 14.9119
C -5.43563 1.53989 13.6424
C 2.30303 1.2688 13.6831
C -1.04396 -1.75993 23.5954
C -1.1895 -1.87546 21.1694
C -0.458317 -1.64305 22.3333
C -2.40379 -2.12939 23.6855
C -3.93028 0.610633 21.2769
C -4.54038 0.485997 22.5266
C -2.6873 1.73165 8.80313
C -1.29708 2.03804 6.83592
C -1.46456 2.07339 8.21903
C -3.77103 1.37095 7.9837
C -2.38362 1.68602 6.03086
C 5.48933 1.34963 6.59792
H -0.639016 3.4835 1.38649
H -3.56287 -1.20704 27.6182
H -3.40365 -1.15806 16.9585
H -4.93928 1.62093 12.6987
H -8.51851 -1.41355 22.2613
H -4.5067 0.433735 20.3873
H -0.631715 2.34719 8.85058
H -2.26575 1.66474 4.96746
N 5.90199 3.00359 1.86603
N -10.9864 -0.909499 29.6759
N -6.1889 -1.72281 27.4766
N -5.63774 -1.63037 26.2613
N -7.36988 1.20624 17.3879
N -3.28188 1.87911 14.7741
N 1.56009 1.08116 12.4933
N 2.13934 1.14326 11.2869
N -9.34456 -1.51347 24.7608
N -1.95567 1.08745 19.8858
N -5.91178 0.155489 22.6303
N -6.69656 0.111411 21.5452
N -2.81229 1.75463 10.2269
N -0.0167748 2.32984 6.2595
N 4.38536 1.00028 5.78604
N 4.48777 0.897987 4.4563
O -7.35113 -1.72736 29.9289
O 6.48832 3.51762 2.90652
O 4.79649 2.33775 2.03348
O -10.3884 -0.751987 28.5341
O 1.5614 3.56084 0.257913
O 0.351615 1.05659 14.9327
O -5.43703 -1.09953 18.4415
O 0.669065 0.477722 17.5315
O -2.66108 1.98323 13.639
O -1.18531 -1.03843 15.8654
O -3.00386 -2.21482 24.849
O -8.21224 -0.879356 24.6576
O -9.68058 -1.99988 25.9169
O -2.60263 0.780865 18.8002
O 0.673663 -1.36283 19.788
O 4.16282 1.09626 8.51161
O -0.710475 -0.180789 10.8984
O -3.56418 0.819148 10.8082
O 0.117767 2.53961 4.98544
O 1.04212 2.3448 7.01123
68
 Atoms. Timestep: 40251
C 6.3165 3.16874 1.07719
C -12.4996 -0.964189 29.2033
C 7.7012 3.38869 1.03474
C -6.56244 -1.37446 29.2445
C -4.50302 -1.10438 28.0078
C -5.88204 -1.33275 28.0278
C -6.63812 1.49452 16.1005
C -4.55459 1.78427 14.8737
C -5.25731 1.70858 16.0799
C 1.38327 1.39678 14.8706
C -5.2557 1.68066 13.6687
C 2.07358 1.48156 13.6585
C -1.52039 -1.70602 23.3737
C -1.70886 -1.77103 20.9488
C -0.947902 -1.59993 22.1048
C -2.89022 -2.00454 23.4842
C -4.2903 0.881956 21.0697
C -4.88689 0.77015 22.3339
C -2.24531 1.59982 9.11741
C -0.895232 1.95262 7.11585
C -1.01958 1.90874 8.50707
C -3.37811 1.36115 8.30986
C -2.03275 1.72639 6.33523
C 5.44105 1.42521 6.91967
H -0.457357 3.50597 1.95763
H -3.98167 -1.05635 27.0656
H -3.5059 -1.16585 17.0115
H -4.72675 1.73529 12.7396
H -8.59804 -1.42206 22.0197
H -4.88634 0.751611 20.1812
H -0.150655 2.09393 9.12449
H -1.95908 1.79196 5.27441
N 5.64924 3.09747 2.35397
N -11.0731 -0.804465 29.1876
N -6.60281 -1.52731 26.8255
N -5.98901 -1.49838 25.6377
N -7.31942 1.3749 17.3639
N -3.12813 1.93123 14.8687
N 1.36215 1.38007 12.4333
N 1.97566 1.46953 11.2431
N -9.40377 -1.49439 24.5289
N -1.43137 -1.64367 19.6613
N -6.27368 0.508706 22.4641
N -7.08861 0.50751 21.3987
N -2.3177 1.52684 10.5461
N 0.385686 2.1938 6.50051
N 4.29356 1.19664 6.12041
N 4.36262 1.09769 4.78632
O -7.86303 -1.49421 29.2271
O 6.30025 3.39008 3.4377
O 4.4177 2.69974 2.4624
O -10.4294 -0.709567 28.0652
O 1.78434 3.55811 0.9169
O 0.0826479 1.278 14.8444
O -5.5525 -1.1399 18.4611
O 0.266354 0.734284 17.4492
O -2.47521 2.00252 13.7528
O -1.23887 -1.07109 15.9816
O -3.45984 -2.07519 24.6618
O -8.30758 -0.810675 24.4163
O -9.68804 -2.03538 25.6734
O -2.9168 0.895517 18.5903
O 0.100473 -1.13896 19.5535
O 4.15757 1.11672 8.85347
O -1.47017 2.28341 11.2483
O -3.16185 0.660271 11.1003
O 0.491895 2.37751 5.21662
O 1.47019 2.15353 7.2183
68
 Atoms. Timestep: 50455
C 6.38931 3.41143 1.61657
C -14.109 0.936959 28.7822
C -0.912755 3.58486 1.6285
C -8.19161 0.561115 28.7137
C -6.07268 0.731048 27.5648
C -7.45341 0.516238 27.5315
C -7.64539 2.3113 15.9826
C -5.47329 2.43678 14.8922
C -6.2541 2.44665 16.0482
C 0.440299 2.18822 14.7165
C -6.09631 2.26821 13.6556
C 1.2163 2.17395 13.5541
C -2.93484 -0.304707 23.1459
C -4.28736 2.30004 20.7601
C -2.29833 -0.38635 21.9109
C -4.30957 -0.559351 23.238
C -5.66674 2.05574 20.8562
C -6.32435 2.13689 22.093
C -2.74838 2.02496 9.40102
C -1.3835 2.32937 7.40517
C -1.51378 2.28177 8.79361
C -3.88639 1.81926 8.59636
C -2.52774 2.11897 6.62015
C 4.92026 1.86398 7.20384
H -0.408733 3.75997 2.56533
H -5.5041 0.717431 26.6501
H -5.77614 2.53233 17.0039
H -5.49986 2.17671 12.7687
H -9.92306 -0.251777 21.8626
H -6.2275 1.82872 19.964
H -0.643671 2.43334 9.4098
H -2.46163 2.15105 5.556
N 5.65215 3.52913 2.85193
N -12.6805 1.06806 28.8283
N -8.12128 0.246081 26.3164
N -7.46608 0.196763 25.1504
N -8.42409 2.3352 17.1938
N -4.05229 2.59484 14.9562
N 0.598141 2.10256 12.2834
N 1.30494 2.14484 11.1423
N -10.872 0.0902825 24.2905
N -3.60201 2.21048 19.5049
N -7.72672 1.9464 22.1989
N -8.51161 1.82181 21.1194
N -2.82952 1.98512 10.83
N -0.0931539 2.57215 6.8073
N 3.76531 1.66771 6.40523
N 3.8263 1.54869 5.07129
O -9.48571 0.399091 28.648
O -1.19106 0.92906 3.92
O 4.37644 3.29479 2.92511
O -11.9802 0.983084 27.7386
O 1.88946 3.77008 1.63552
O -0.860172 2.13771 14.611
O -6.69283 -0.0966674 18.2643
O -0.881944 1.74426 17.2568
O -3.38026 2.81053 13.8714
O -3.42136 2.571 16.089
O -4.91645 -0.4353 24.3905
O -9.91872 0.957785 24.1567
O -11.0737 -0.456715 25.4495
O -4.06344 1.45527 18.5565
O -1.17469 -0.221939 19.3431
O 3.62828 1.61815 9.14341
O -2.0258 2.79111 11.5194
O -3.6586 1.1095 11.3932
O 0.0147895 2.90667 5.55592
O 0.989747 2.4887 7.52461
68
 Atoms. Timestep: 60459
C 6.60008 3.51708 1.67905
C -13.914 1.01668 28.8098
C -0.701629 3.68327 1.68083
C -7.99956 0.659739 28.7707
C -5.89147 0.800125 27.5979
C -7.27627 0.596622 27.5799
C -7.74087 2.13989 16.0013
C -5.59647 2.34351 14.8788
C -6.35094 2.2607 16.0517
C 0.314555 2.12747 14.7449
C -6.24849 2.31269 13.6429
C 1.05896 2.21728 13.5649
C -2.81675 -0.356252 23.1519
C -4.18112 2.08588 20.7931
C -2.18793 -0.518856 21.92
C -4.18983 -0.618938 23.2651
C -5.55981 1.85335 20.9061
C -6.2085 2.00435 22.1405
C -2.9872 2.2165 9.30999
C -1.56962 2.4895 7.35142
C -1.74003 2.48143 8.73553
C 4.59453 1.98126 8.47831
C -2.68102 2.23427 6.53344
C 4.75148 1.97526 7.08806
H -0.188045 3.86257 2.61495
H -5.33385 0.761953 26.6762
H -5.85745 2.25437 17.008
H -5.6757 2.3323 12.738
H -9.81437 -0.371469 21.857
H -6.12464 1.56151 20.0346
H -0.891653 2.67251 9.3751
H -2.5746 2.22969 5.46875
N 5.87445 3.65473 2.91524
N -12.4845 1.14194 28.8473
N -7.96886 0.317827 26.3779
N -7.33687 0.227051 25.2025
N -8.48691 2.04104 17.2246
N -4.17098 2.45334 14.9348
N 0.398283 2.24334 12.3108
N 1.06937 2.3389 11.1518
N -10.7501 0.130103 24.2615
N -3.50396 1.91283 19.5425
N -7.60947 1.81937 22.2574
N -8.3942 1.66366 21.1808
N -3.09978 2.17919 10.7357
N -0.267857 2.74296 6.79342
N 3.62972 1.70601 6.26508
N 3.75172 1.44274 4.95611
O -9.29705 0.516033 28.7214
O -0.967684 1.19468 3.93663
O 4.63432 3.28928 3.03356
O -11.7933 1.10954 27.7496
O 2.09846 3.80528 1.6693
O -0.987477 2.07337 14.6693
O -8.03547 2.5714 18.3219
O -0.876593 1.33058 17.2752
O -3.49872 2.72471 13.862
O -3.52774 2.26265 16.0449
O -4.79169 -0.434892 24.4129
O -9.81498 1.007 24.0662
O -10.9429 -0.333383 25.4573
O -4.03973 1.20878 18.5933
O -2.30899 2.39288 19.373
O 3.40108 1.78808 8.99766
O -2.31613 2.99202 11.4405
O -3.90197 1.26912 11.2822
O -0.139538 3.21527 5.59111
O 0.800407 2.5985 7.52104
68
 Atoms. Timestep: 70467
C 6.601 3.51876 1.68772
C -13.9166 1.01641 28.8032
C -0.700917 3.68498 1.68981
C -8.00203 0.659094 28.7637
C -5.89348 0.798156 27.5914
C -7.27836 0.594381 27.5732
C -7.74533 2.13612 16.0004
C -5.60057 2.34134 14.879
C -6.35527 2.2555 16.0515
C 0.310517 2.12782 14.7438
C -6.25245 2.3151 13.6428
C 1.05517 2.2208 13.5643
C -2.81819 -0.362329 23.1483
C -4.18401 2.07816 20.7899
C -2.18947 -0.525686 21.9165
C -4.19136 -0.624829 23.2618
C -5.56282 1.84577 20.9032
C -6.21137 1.99739 22.1375
C -2.99102 2.2252 9.31326
C -1.5726 2.4974 7.35538
C -1.74364 2.4903 8.73932
C 4.59127 1.98932 8.48136
C -2.68366 2.24131 6.53703
C 4.74884 1.98237 7.09122
H -0.187644 3.86591 2.62383
H -5.33551 0.75859 26.67
H -5.86193 2.24527 17.0078
H -5.67951 2.33748 12.7382
H -9.81607 -0.378597 21.8534
H -6.12782 1.55368 20.0318
H -0.895585 2.68213 9.37918
H -2.57683 2.23594 5.47243
N 5.87486 3.65901 2.92324
N -12.487 1.14109 28.8413
N -7.97067 0.313482 26.3716
N -7.3384 0.22153 25.1964
N -8.49166 2.03465 17.2231
N -4.17496 2.44991 14.9355
N 0.394668 2.25183 12.3101
N 1.06619 2.34949 11.1515
N -10.7517 0.124977 24.2573
N -3.50696 1.90468 19.5394
N -7.61247 1.81271 22.2546
N -8.39746 1.65697 21.1781
N -3.10403 2.18787 10.7388
N -0.270508 2.75066 6.79797
N 3.62752 1.71203 6.26792
N 3.75056 1.44515 4.95978
O -9.29954 0.514884 28.7142
O -0.967222 1.20304 3.94314
O 4.63467 3.29351 3.04194
O -11.7954 1.10632 27.744
O 2.09937 3.80523 1.67942
O -0.991593 2.0747 14.668
O -8.04069 2.56324 18.3216
O -0.880848 1.32358 17.272
O -3.50242 2.7246 13.8638
O -3.53191 2.25488 16.0451
O -4.79303 -0.439833 24.4095
O -9.81689 1.00214 24.0613
O -10.9443 -0.33758 25.4535
O -4.04241 1.19926 18.591
O -2.31228 2.38558 19.3694
O 3.39762 1.79615 9.00044
O -2.32186 3.00211 11.4438
O -3.90446 1.27594 11.2849
O -0.141723 3.22419 5.59621
O 0.797531 2.60559 7.52594
68
 Atoms. Timestep: 80528
C 6.61088 3.52601 1.76615
C -14.4836 1.20423 28.7389
C -0.700091 3.69528 1.78333
C -8.5575 0.839327 28.6713
C -6.43566 0.974698 27.5233
C -7.81736 0.766966 27.4903
C -8.03923 2.22915 15.9936
C -5.87962 2.42899 14.8927
C -6.64859 2.34889 16.0585
C 0.0422658 2.21692 14.7301
C -6.51721 2.39638 13.6514
C 0.802477 2.30499 13.5587
C -3.2579 -0.221251 23.112
C -4.58588 2.20639 20.7577
C -2.61422 -0.392502 21.8879
C -4.63238 -0.484974 23.2155
C -5.9668 1.97101 20.8599
C -6.63058 2.13129 22.0871
C -3.14787 2.28208 9.35336
C -1.70249 2.54135 7.40934
C -1.89359 2.54582 8.79225
C 4.45688 2.04199 8.50884
C -2.80223 2.27656 6.57776
C 4.63253 2.02216 7.12003
H -0.197551 3.88546 2.72156
H -5.86762 0.926868 26.608
H -6.16712 2.34651 17.0193
H -5.93413 2.41233 12.7518
H -10.2498 -0.241304 21.8337
H -6.52073 1.66721 19.9862
H -1.05555 2.7469 9.44014
H 6.024 2.25901 5.51316
N 5.86757 3.67618 2.99113
N -13.0553 1.32939 28.786
N -8.48517 0.470406 26.2798
N -7.82721 0.377864 25.1174
N -8.8017 2.1399 17.2092
N -4.45497 2.54216 14.9582
N 0.161639 2.33428 12.2957
N 0.852828 2.41966 11.1469
N -11.2136 0.28394 24.2197
N -3.89205 2.02043 19.5161
N -8.03198 1.94123 22.1946
N -8.80931 1.77778 21.1137
N -3.28269 2.25291 10.7786
N -0.391894 2.79155 6.86803
N 3.52065 1.74135 6.28764
N 3.65595 1.46103 4.98265
O -9.85321 0.688293 28.6082
O -1.01235 1.23995 4.00807
O 4.6296 3.30043 3.10079
O -12.3557 1.2755 27.6938
O 2.10425 3.81761 1.79333
O -1.25842 2.16367 14.6398
O -8.36603 2.68644 18.305
O -1.18813 1.43796 17.2546
O -3.77643 2.81614 13.889
O -3.81739 2.34246 16.0696
O -5.24846 -0.290642 24.3556
O -10.2859 1.16762 24.0173
O -11.4174 -0.16002 25.4216
O -4.4126 1.29263 18.5766
O -2.69376 2.49675 19.3516
O 3.25712 1.85546 9.01533
O -2.51855 3.07835 11.4901
O -4.09498 1.34743 11.3207
O -0.244909 3.2657 5.66821
O 0.666202 2.64376 7.60895
68
 Atoms. Timestep: 90578
C 6.67895 3.5099 1.8737
C -14.9468 1.42265 28.6647
C -0.657809 3.68513 1.90815
C -8.99362 1.04805 28.5666
C -6.85985 1.1868 27.4438
C -8.23926 0.974801 27.3948
C -8.33991 2.36858 15.9815
C -6.16934 2.56443 14.9
C -6.94735 2.47981 16.059
C -0.2233 2.36242 14.7122
C -6.79865 2.5393 13.6547
C 0.548489 2.45121 13.5486
C -3.61827 -0.0373393 23.0661
C -4.92775 2.35487 20.7231
C -2.96793 -0.22698 21.8487
C -4.99086 -0.306685 23.167
C -6.30952 2.1159 20.8219
C -6.97927 2.29515 22.044
C -3.36035 2.38621 9.38765
C -1.86318 2.58807 7.47849
C -2.09399 2.6434 8.85374
C 4.29929 2.10257 8.52133
C -2.93574 2.28378 6.62447
C 4.51411 2.0321 7.14001
H -0.166009 3.88283 2.85182
H -6.28386 1.13625 26.5344
H -6.47159 2.46864 17.0229
H -6.21 2.5587 12.7597
H -10.6305 -0.07212 21.7979
H -6.85767 1.79442 19.9503
H -1.27845 2.88344 9.5154
H 5.94799 2.22673 5.5647
N 5.91833 3.65908 3.08668
N -13.5182 1.54845 28.7217
N -8.89016 0.672694 26.1766
N -8.21926 0.5813 25.021
N -9.11191 2.27795 17.1901
N -4.74392 2.67686 14.9735
N -0.0779531 2.48653 12.2784
N 0.628871 2.56012 11.1385
N -11.6112 0.495649 24.1683
N -4.22508 2.15148 19.4886
N -8.38033 2.10148 22.1519
N -9.15417 1.91756 21.0722
N -3.5359 2.40117 10.8081
N -0.53815 2.82419 6.96889
N 3.43057 1.69543 6.29082
N 3.60533 1.35743 5.00426
O -10.2899 0.896877 28.4893
O -1.03165 1.26897 4.09034
O 4.70193 3.21937 3.1974
O -12.8132 1.49089 27.6333
O 2.15525 3.79935 1.93731
O -1.52496 2.31733 14.6094
O -8.69151 2.83432 18.2863
O -1.475 1.58053 17.2245
O -4.06278 2.96658 13.9106
O -4.10788 2.46803 16.084
O -5.61272 -0.0949121 24.3005
O -10.6883 1.38101 23.9542
O -11.8149 0.0711382 25.3768
O -4.73606 1.40517 18.559
O -3.02718 2.62901 19.3229
O 3.08805 1.9221 9.00028
O -2.8036 3.25816 11.5157
O -4.35264 1.50171 11.3535
O -0.358987 3.29965 5.77507
O 0.501139 2.66772 7.73466
68
 Atoms. Timestep: 100000
C 6.70659 3.50345 1.87004
C -14.9158 1.41942 28.6721
C -0.632801 3.68332 1.91074
C -8.9599 1.0387 28.5606
C -6.8219 1.18197 27.4461
C -8.20216 0.967326 27.3911
C -8.36257 2.37419 15.963
C -6.18965 2.57181 14.892
C -6.97135 2.47316 16.0462
C -0.242105 2.39102 14.6914
C -6.81332 2.56517 13.6425
C 0.532759 2.48615 13.5302
C -3.59743 -0.0448129 23.0705
C -4.91609 2.32581 20.7321
C -2.95206 -0.242935 21.8508
C -4.96836 -0.320923 23.1797
C -6.29432 2.08331 20.839
C -6.95924 2.26926 22.0607
C -3.40515 2.42586 9.38495
C -1.88976 2.60171 7.48912
C -2.13752 2.68862 8.85903
C 4.26725 2.10851 8.51332
C -2.94753 2.26802 6.62892
C 4.49857 2.0117 7.13521
H -0.148815 3.88253 2.85755
H -6.23854 1.13303 26.5404
H -6.49996 2.44157 17.0121
H -6.21884 2.59582 12.7516
H -10.6168 -0.0819237 21.7922
H -6.84626 1.75443 19.9726
H -1.33375 2.957 9.52418
H 5.95319 2.19298 5.57247
N 5.94038 3.65132 3.07959
N -13.4876 1.54247 28.7394
N -8.85107 0.664233 26.1711
N -8.17866 0.578891 25.0167
N -9.13804 2.27886 17.1695
N -4.76561 2.68323 14.9766
N -0.090538 2.53942 12.2578
N 0.621647 2.60776 11.121
N -11.5888 0.504213 24.1654
N -4.2228 2.11167 19.495
N -8.35989 2.07482 22.1678
N -9.13107 1.87844 21.0873
N -3.59325 2.46329 10.8043
N -0.560175 2.83012 6.99206
N 3.43046 1.6417 6.28001
N 3.62719 1.29242 4.99992
O -10.255 0.884142 28.4794
O -1.02601 1.28288 4.07867
O 4.74348 3.16347 3.20031
O -12.7758 1.48621 27.6558
O 2.17824 3.78454 1.96058
O -1.5431 2.36137 14.5855
O -8.71205 2.81417 18.2748
O -1.49669 1.57457 17.1983
O -4.08041 3.01804 13.9299
O -4.13767 2.45155 16.0878
O -5.58599 -0.101741 24.3142
O -10.6726 1.39354 23.9386
O -11.7873 0.0939746 25.3803
O -4.74255 1.36207 18.5722
O -3.03026 2.59581 19.3135
O 3.05381 1.92149 8.98429
O -2.86804 3.33235 11.5059
O -4.39202 1.55327 11.3574
O -0.367451 3.30368 5.79953
O 0.469407 2.66785 7.76914
68
 Atoms. Timestep: 100584
C 6.70697 3.50305 1.87823
C -14.9211 1.41923 28.6641
C -0.635147 3.68288 1.91893
C -8.96304 1.03861 28.5526
C -6.82436 1.18186 27.4388
C -8.20507 0.967275 27.3838
C -8.36666 2.37422 15.9627
C -6.19307 2.57186 14.8922
C -6.97497 2.47315 16.0458
C -0.243348 2.39113 14.6919
C -6.81707 2.5653 13.6436
C 0.531703 2.48631 13.5313
C -3.59873 -0.0444868 23.0659
C -4.91857 2.32566 20.7288
C -2.95317 -0.242523 21.8469
C -4.97008 -0.320527 23.175
C -6.29722 2.08321 20.8357
C -6.96236 2.26907 22.0567
C -3.40787 2.42601 9.38854
C -1.89203 2.60168 7.49389
C -2.13988 2.68868 8.86297
C 4.26738 2.10863 8.51746
C -2.95014 2.26798 6.63421
C 4.49876 2.01175 7.14018
H -0.150961 3.88203 2.86515
H -6.24083 1.13295 26.5336
H -6.50332 2.4415 17.0111
H -6.22243 2.59601 12.7531
H -10.6208 -0.0815556 21.7883
H -6.84936 1.75446 19.9698
H -1.33585 2.95707 9.52771
H 5.95381 2.19286 5.5784
N 5.94049 3.65086 3.08706
N -13.4925 1.54224 28.7313
N -8.85423 0.664286 26.1646
N -8.18161 0.579006 25.0108
N -9.14233 2.27883 17.1684
N -4.76856 2.68323 14.9768
N -0.0919366 2.53965 12.2597
N 0.62043 2.60805 11.1236
N -11.593 0.50437 24.16
N -4.22504 2.11163 19.4924
N -8.36345 2.07468 22.1637
N -9.13496 1.87837 21.0839
N -3.59601 2.46354 10.807
N -0.562041 2.82997 6.99718
N 3.43033 1.64175 6.28555
N 3.62717 1.29246 5.00618
O -10.2586 0.884091 28.4715
O -1.02783 1.28304 4.08553
O 4.74335 3.16312 3.20771
O -12.7805 1.48602 27.6484
O 2.17691 3.78406 1.96875
O -1.5448 2.36149 14.586
O -8.71622 2.81398 18.2731
O -1.49799 1.57475 17.1971
O -4.08322 3.01801 13.9308
O -4.14024 2.45154 16.0874
O -5.58792 -0.101436 24.3088
O -10.6768 1.39344 23.9335
O -11.7914 0.0941436 25.3743
O -4.74488 1.36223 18.5702
O -3.03226 2.59567 19.3111
O 3.05357 1.92166 8.98813
O -2.87074 3.33244 11.5081
O -4.39478 1.55377 11.3599
O -0.369378 3.30337 5.80528
O 0.46798 2.66776 7.77381
68
 Atoms. Timestep: 109336
C 6.70638 3.50237 1.8782
C -14.9217 1.41835 28.6647
C -0.636174 3.68223 1.9197
C -8.96269 1.03741 28.5516
C -6.82403 1.18101 27.4384
C -8.20424 0.966096 27.3826
C -8.36854 2.37332 15.9611
C -6.19469 2.57113 14.892
C -6.97729 2.47096 16.0454
C -0.244033 2.39277 14.689
C -6.81745 2.5666 13.6421
C 0.531857 2.48884 13.5285
C -3.59772 -0.046323 23.0666
C -4.91907 2.32301 20.7285
C -2.95314 -0.244808 21.8466
C -4.96864 -0.321986 23.1766
C -6.29727 2.08076 20.8362
C -6.96144 2.26726 22.0582
C -3.40708 2.43014 9.38999
C -1.89164 2.60474 7.4942
C -2.13959 2.69303 8.86393
C 4.26861 2.11163 8.51867
C -2.94929 2.26979 6.6343
C 4.50004 2.0135 7.14074
H -0.152711 3.88161 2.86672
H -6.24018 1.13235 26.533
H -6.5066 2.43688 17.0116
H -6.22227 2.59776 12.7518
H -10.6211 -0.0840793 21.7873
H -6.84977 1.75179 19.9702
H -1.33604 2.96247 9.52886
H 5.95453 2.19362 5.57803
N 5.93954 3.65087 3.08722
N -13.4935 1.54103 28.7329
N -8.85242 0.662719 26.1624
N -8.17944 0.577557 25.0083
N -9.14491 2.27678 17.1668
N -4.77069 2.68225 14.9777
N -0.090276 2.54481 12.2558
N 0.623011 2.6136 11.1197
N -11.5915 0.502691 24.1608
N -4.22655 2.10828 19.4912
N -8.36209 2.07323 22.1661
N -9.13388 1.87635 21.0862
N -3.59501 2.46791 10.8092
N -0.561939 2.83274 6.99717
N 3.43216 1.64195 6.28594
N 3.62919 1.29084 5.00641
O -10.2578 0.88247 28.4697
O -1.02912 1.28333 4.08629
O 4.74204 3.16432 3.20716
O -12.7809 1.4826 27.65
O 2.17487 3.78383 1.97129
O -1.54504 2.36473 14.582
O -8.71934 2.8101 18.2732
O -1.50089 1.57324 17.1936
O -4.08494 3.02065 13.9327
O -4.14337 2.44812 16.0887
O -5.58543 -0.102115 24.3114
O -10.6756 1.39203 23.9334
O -11.7888 0.0921198 25.3759
O -4.74639 1.35717 18.5697
O -3.03442 2.59297 19.3085
O 3.05519 1.9246 8.98976
O -2.87026 3.33758 11.5105
O -4.39248 1.55697 11.3626
O -0.368989 3.30594 5.80454
O 0.467525 2.67079 7.77451
68
 Atoms. Timestep: 109370
C 6.71455 3.50405 1.91639
C -15.043 1.48643 28.6302
C -0.636925 3.6846 1.9598
C -9.07544 1.10414 28.5134
C -6.93384 1.24524 27.4043
C -8.31393 1.02996 27.3468
C -8.43057 2.40877 15.9608
C -6.25318 2.60552 14.8955
C -7.03891 2.50734 16.0474
C -0.293981 2.42582 14.6882
C -6.87374 2.59733 13.6456
C 0.485116 2.51946 13.5301
C -3.68892 0.00777202 23.0471
C -4.99914 2.37118 20.7124
C -3.04135 -0.195107 21.8297
C -5.05972 -0.268312 23.1563
C -6.37798 2.12895 20.8183
C -7.04485 2.31911 22.0387
C -3.43966 2.45036 9.40774
C -1.91854 2.61997 7.51552
C -2.17048 2.71175 8.88398
C 4.24738 2.13004 8.53591
C -2.97502 2.28228 6.6551
C 4.482 2.02785 7.15975
H -0.155287 3.88736 2.90669
H -6.34756 1.19389 26.5006
H -6.57058 2.47585 17.0139
H -6.27585 2.6259 12.7567
H -10.7184 -0.0345123 21.7718
H -6.92886 1.79657 19.9529
H -1.36892 2.98379 9.54926
H 5.94073 2.2023 5.6001
N 5.94349 3.65571 3.12252
N -13.6146 1.60929 28.6988
N -8.95856 0.722327 26.1267
N -8.28128 0.63418 24.9752
N -9.21115 2.31495 17.164
N -4.82889 2.71679 14.9816
N -0.133238 2.57216 12.2566
N 0.585426 2.63831 11.1238
N -11.6944 0.56029 24.14
N -4.30231 2.153 19.478
N -8.44567 2.12498 22.1467
N -9.21813 1.92431 21.0683
N -3.63259 2.49185 10.8255
N -0.58668 2.8463 7.02135
N 3.41507 1.65303 6.30604
N 3.61378 1.29682 5.02832
O -10.3706 0.948535 28.429
O -1.04493 1.29097 4.12007
O 4.74537 3.17043 3.23993
O -12.9003 1.5472 27.6173
O 2.17654 3.7867 2.01338
O -1.59507 2.39786 14.5783
O -8.79142 2.85391 18.2697
O -1.55934 1.61414 17.1884
O -4.14171 3.05324 13.937
O -4.20174 2.48428 16.0927
O -5.67875 -0.0455222 24.2895
O -10.7763 1.44677 23.9111
O -11.8932 0.152591 25.3555
O -4.81823 1.39737 18.5585
O -3.10924 2.63602 19.2979
O 3.03273 1.94433 9.00475
O -2.91046 3.36332 11.5269
O -4.434 1.58401 11.3779
O -0.389469 3.31826 5.82917
O 0.44099 2.68515 7.80103
68
 Atoms. Timestep: 119378
C 6.71359 3.50635 1.92173
C -15.0665 1.49011 28.6226
C -0.641366 3.68878 1.96905
C -9.09498 1.10343 28.4986
C -6.95005 1.24553 27.3955
C -8.32969 1.02782 27.3344
C -8.45026 2.40955 15.9519
C -6.26943 2.60601 14.8946
C -7.0588 2.50292 16.0432
C -0.306957 2.43495 14.6779
C -6.88562 2.6046 13.6429
C 0.476316 2.53047 13.5224
C -3.69915 0.000308175 23.0433
C -5.01245 2.35892 20.711
C -3.05303 -0.203985 21.8252
C -5.06976 -0.278414 23.155
C -6.39061 2.11495 20.8196
C -7.05661 2.30737 22.0395
C -3.45305 2.46771 9.41639
C -1.93009 2.63324 7.52569
C -2.18467 2.73251 8.89281
C 4.23931 2.13851 8.54488
C -2.98365 2.28821 6.66526
C 4.47638 2.03123 7.16931
H -0.163118 3.89422 2.91659
H -6.36091 1.19264 26.494
H -6.59315 2.46383 17.0106
H -6.28501 2.63589 12.7564
H -10.7335 -0.0404406 21.7644
H -6.942 1.77964 19.956
H -1.38515 3.01197 9.55727
H 5.93743 2.20371 5.61102
N 5.93939 3.65956 3.12539
N -13.6384 1.61285 28.6963
N -8.97014 0.715627 26.1135
N -8.29032 0.627408 24.9636
N -9.23367 2.31208 17.1529
N -4.84596 2.71892 14.9866
N -0.137554 2.59022 12.2471
N 0.584207 2.65496 11.1161
N -11.7072 0.559707 24.1328
N -4.31807 2.13683 19.4761
N -8.45719 2.11208 22.1479
N -9.22792 1.9071 21.0692
N -3.64585 2.51169 10.8342
N -0.597643 2.85791 7.03316
N 3.41271 1.648 6.31552
N 3.61483 1.29118 5.03853
O -10.3894 0.944229 28.4118
O -1.05478 1.29815 4.12147
O 4.74509 3.16484 3.24422
O -12.9201 1.54589 27.6177
O 2.17124 3.78984 2.03254
O -1.60773 2.41325 14.5647
O -8.8133 2.84397 18.2616
O -1.57748 1.60831 17.1739
O -4.15695 3.07548 13.9497
O -4.22226 2.47637 16.097
O -5.68811 -0.0542368 24.2881
O -10.7921 1.44866 23.899
O -11.9065 0.159598 25.3508
O -4.8364 1.37735 18.561
O -3.12657 2.62218 19.2897
O 3.02478 1.94975 9.01313
O -2.92569 3.38675 11.5334
O -4.44055 1.59877 11.3891
O -0.398327 3.32573 5.83953
O 0.428521 2.69664 7.81394
68
 Atoms. Timestep: 129387
C 6.71421 3.50835 1.93043
C -15.0946 1.4939 28.6145