units           real
atom_style      full
boundary        p p p

pair_style      lj/cut 12.500
bond_style      harmonic
angle_style     cosine/periodic
dihedral_style  harmonic
improper_style  fourier

special_bonds   lj/coul 0.0 0.0 1.0
pair_modify     tail yes mix arithmetic
dielectric      1.0
box tilt        large
read_data   all_input_data
Reading data file ...
  triclinic box = (0 0 0) to (7.317285 35.26166 5.675925) with tilt (7.295276 -0.694128 -1.714107)
WARNING: Triclinic box skew is large (src/domain.cpp:224)
  2 by 10 by 1 MPI processor grid
  reading atoms ...
  68 atoms
  scanning bonds ...
  3 = max bonds/atom
  scanning angles ...
  3 = max angles/atom
  scanning dihedrals ...
  12 = max dihedrals/atom
  scanning impropers ...
  3 = max impropers/atom
  reading bonds ...
  68 bonds
  reading angles ...
  100 angles
  reading dihedrals ...
  136 dihedrals
  reading impropers ...
  96 impropers
Finding 1-2 1-3 1-4 neighbors ...
  special bond factors lj:    0        0        1       
  special bond factors coul:  0        0        1       
     3 = max # of 1-2 neighbors
     6 = max # of 1-3 neighbors
     9 = max # of special neighbors
  special bonds CPU = 0.001 seconds
  read_data CPU = 0.010 seconds

#### Atom Groupings ####
group           1        id   1:68
68 atoms in group 1
group           1-1      id   1:6 25:26 33:36 49:53
17 atoms in group 1-1
group           1-2      id   7:12 27:28 37:40 54:58
17 atoms in group 1-2
group           1-3      id   13:18 29:30 41:44 59:63
17 atoms in group 1-3
group           1-4      id   19:24 31:32 45:48 64:68
17 atoms in group 1-4
#### END Atom Groupings ####

dump           structure_xyzmov 1 xyz 100000 structure_mov.xyz
dump_modify    structure_xyzmov element C H N O
min_style       cg
print           "MinStep,CellMinStep,AtomMinStep,FinalStep,Energy,EDiff" file p1_structure.min.csv screen no
variable        min_eval   equal 1.00e-06
variable        prev_E     equal 50000.00
variable        iter       loop 100000
label           loop_min
min_style       cg
fix             1 all box/relax tri 50000 vmax 0.05
minimize        1.0e-15 1.0e-15 10000 100000
WARNING: Using 'neigh_modify every 1 delay 0 check yes' setting during minimization (src/min.cpp:187)
----------------------------------------------------------
Using INTEL Package without Coprocessor.
Compiler: Intel LLVM C++ 202202.0 / Intel(R) oneAPI DPC++/C++ Compiler 2022.2.1 (2022.2.1.20221020)
SIMD compiler directives: Enabled
Precision: mixed
----------------------------------------------------------
Generated 6 of 6 mixed pair_coeff terms from arithmetic mixing rule
Neighbor list info ...
  update every 1 steps, delay 0 steps, check yes
  max neighbors/atom: 2000, page size: 100000
  master list distance cutoff = 14.5
  ghost atom cutoff = 14.5
  binsize = 7.25, bins = 3 6 1
  1 neighbor lists, perpetual/occasional/extra = 1 0 0
  (1) pair lj/cut/intel, perpetual
      attributes: half, newton on, intel
      pair build: half/bin/newton/tri/intel
      stencil: half/bin/3d/tri
      bin: intel
WARNING: Bond/angle/dihedral extent > half of periodic box length (src/domain.cpp:940)
Per MPI rank memory allocation (min/avg/max) = 15.52 | 15.8 | 16.38 Mbytes
   Step          Temp          E_pair         E_mol          TotEng         Press          Volume    
         0   0              15776137       630.92506      15776768       2.9549104e+09  1464.5       
        44   0              2071.9033      445.85201      2517.7553      306377.48      1849.8255    
WARNING: Bond/angle/dihedral extent > half of periodic box length (src/domain.cpp:940)
Loop time of 0.057336 on 40 procs for 44 steps with 68 atoms

90.5% CPU use with 20 MPI tasks x 2 OpenMP threads

Minimization stats:
  Stopping criterion = linesearch alpha is zero
  Energy initial, next-to-last, final = 
      15776767.9352002   733.553089659838   2798.73420975639
  Force two-norm initial, final = 4.4511222e+08 49315.498
  Force max component initial, final = 2.4510766e+08 41871.158
  Final line search alpha, max atom move = 2.5164347e-14 1.0536604e-09
  Iterations, force evaluations = 44 114

MPI task timing breakdown:
Section |  min time  |  avg time  |  max time  |%varavg| %total
---------------------------------------------------------------
Pair    | 0.00011971 | 0.0044128  | 0.0079066  |   4.1 |  7.70
Bond    | 3.8645e-05 | 0.0034486  | 0.0066829  |   4.4 |  6.01
Neigh   | 0.010568   | 0.011565   | 0.012516   |   0.6 | 20.17
Comm    | 0.014666   | 0.022092   | 0.033255   |   4.1 | 38.53
Output  | 0          | 0          | 0          |   0.0 |  0.00
Modify  | 1.4698e-05 | 0.00077114 | 0.0015306  |   0.0 |  1.34
Other   |            | 0.01505    |            |       | 26.24

Nlocal:            3.4 ave           9 max           0 min
Histogram: 6 0 0 3 6 0 3 0 1 1
Nghost:           1488 ave        1514 max        1475 min
Histogram: 3 3 6 4 0 1 0 1 1 1
Neighs:          940.2 ave        2913 max           0 min
Histogram: 6 1 2 4 3 1 1 0 1 1

Total # of neighbors = 18804
Ave neighs/atom = 276.52941
Ave special neighs/atom = 4.9411765
Neighbor list builds = 77
Dangerous builds = 59
unfix           1
min_style       fire
variable        tempstp    equal $(step)
variable        tempstp    equal 44
variable        CellMinStep equal ${tempstp}
variable        CellMinStep equal 44
minimize        1.0e-15 1.0e-15 10000 100000
WARNING: Using 'neigh_modify every 1 delay 0 check yes' setting during minimization (src/min.cpp:187)
----------------------------------------------------------
Using INTEL Package without Coprocessor.
Compiler: Intel LLVM C++ 202202.0 / Intel(R) oneAPI DPC++/C++ Compiler 2022.2.1 (2022.2.1.20221020)
SIMD compiler directives: Enabled
Precision: mixed
----------------------------------------------------------
Generated 6 of 6 mixed pair_coeff terms from arithmetic mixing rule
  Parameters for fire: 
    dmax delaystep dtgrow dtshrink alpha0 alphashrink tmax tmin    integrator halfstepback 
     0.1        20    1.1      0.5   0.25        0.99   10 0.02 eulerimplicit          yes 
WARNING: Bond/angle/dihedral extent > half of periodic box length (src/domain.cpp:940)
Per MPI rank memory allocation (min/avg/max) = 14.53 | 14.77 | 15.29 Mbytes
   Step          Temp          E_pair         E_mol          TotEng         Press     
        44   0              2071.9033      445.85201      2517.7553      306377.48    
     10044   0.00052929408  43.759567      28.723479      72.483151     -398.76046    
WARNING: Bond/angle/dihedral extent > half of periodic box length (src/domain.cpp:940)
Loop time of 1.92817 on 40 procs for 10000 steps with 68 atoms

93.0% CPU use with 20 MPI tasks x 2 OpenMP threads

Minimization stats:
  Stopping criterion = max iterations
  Energy initial, next-to-last, final = 
      2517.75533644228   72.4831022387077   72.4830457473296
  Force two-norm initial, final = 19052.667 0.56095673
  Force max component initial, final = 12613.041 0.11691253
  Final line search alpha, max atom move = 0 0
  Iterations, force evaluations = 10000 10533

MPI task timing breakdown:
Section |  min time  |  avg time  |  max time  |%varavg| %total
---------------------------------------------------------------
Pair    | 0.030014   | 0.32025    | 0.57892    |  34.3 | 16.61
Bond    | 0.0018226  | 0.23628    | 0.55091    |  42.5 | 12.25
Neigh   | 0.0010172  | 0.0010638  | 0.00113    |   0.1 |  0.06
Comm    | 0.51383    | 1.0006     | 1.615      |  32.7 | 51.89
Output  | 6.3343e-05 | 6.4794e-05 | 7.3145e-05 |   0.0 |  0.00
Modify  | 0.00092005 | 0.065428   | 0.10213    |  16.5 |  3.39
Other   |            | 0.3045     |            |       | 15.79

Nlocal:            3.4 ave          11 max           0 min
Histogram: 9 0 1 2 3 2 0 2 0 1
Nghost:         1516.6 ave        1528 max        1504 min
Histogram: 4 1 2 3 0 1 0 3 2 4
Neighs:         937.05 ave        2620 max           0 min
Histogram: 8 1 1 1 2 2 1 1 1 2

Total # of neighbors = 18741
Ave neighs/atom = 275.60294
Ave special neighs/atom = 4.9411765
Neighbor list builds = 4
Dangerous builds = 0
variable        AtomMinStep equal $(step)
variable        AtomMinStep equal 10044
variable        temppe     equal $(pe)
variable        temppe     equal 72.483045747329569508
variable        min_E      equal abs(${prev_E}-${temppe})
variable        min_E      equal abs(50000-${temppe})
variable        min_E      equal abs(50000-72.4830457473296)
print           "${iter},${CellMinStep},${AtomMinStep},${AtomMinStep},$(pe),${min_E}" append p1_structure.min.csv screen no
if              "${min_E} < ${min_eval}" then "jump SELF break_min"
variable        prev_E     equal ${temppe}
variable        prev_E     equal 72.4830457473296
next            iter
jump            SELF loop_min
min_style       cg
fix             1 all box/relax tri 50000 vmax 0.05
minimize        1.0e-15 1.0e-15 10000 100000
WARNING: Using 'neigh_modify every 1 delay 0 check yes' setting during minimization (src/min.cpp:187)
----------------------------------------------------------
Using INTEL Package without Coprocessor.
Compiler: Intel LLVM C++ 202202.0 / Intel(R) oneAPI DPC++/C++ Compiler 2022.2.1 (2022.2.1.20221020)
SIMD compiler directives: Enabled
Precision: mixed
----------------------------------------------------------
Generated 6 of 6 mixed pair_coeff terms from arithmetic mixing rule
WARNING: Bond/angle/dihedral extent > half of periodic box length (src/domain.cpp:940)
Per MPI rank memory allocation (min/avg/max) = 15.66 | 15.91 | 16.45 Mbytes
   Step          Temp          E_pair         E_mol          TotEng         Press          Volume    
     10044   0.00052929408  43.759562      29.883067      73.642734     -398.76132      1849.8255    
     10070   0.00052929408  160.48299      16.532362      177.01546      57201.363      1442.3962    
WARNING: Bond/angle/dihedral extent > half of periodic box length (src/domain.cpp:940)
Loop time of 0.0521981 on 40 procs for 26 steps with 68 atoms

97.1% CPU use with 20 MPI tasks x 2 OpenMP threads

Minimization stats:
  Stopping criterion = linesearch alpha is zero
  Energy initial, next-to-last, final = 
      73.6426285321366  -120.869985394252  -120.081584308369
  Force two-norm initial, final = 2357.2089 367.02235
  Force max component initial, final = 1384.0741 221.96654
  Final line search alpha, max atom move = 5.244724e-14 1.1641532e-11
  Iterations, force evaluations = 26 119

MPI task timing breakdown:
Section |  min time  |  avg time  |  max time  |%varavg| %total
---------------------------------------------------------------
Pair    | 0.00024418 | 0.0047196  | 0.0084871  |   4.3 |  9.04
Bond    | 3.5479e-05 | 0.0024114  | 0.0070268  |   4.7 |  4.62
Neigh   | 0.0073028  | 0.008282   | 0.0089517  |   0.6 | 15.87
Comm    | 0.012409   | 0.020885   | 0.030528   |   3.5 | 40.01
Output  | 0          | 0          | 0          |   0.0 |  0.00
Modify  | 1.3752e-05 | 0.00076551 | 0.0019695  |   0.0 |  1.47
Other   |            | 0.01513    |            |       | 28.99

Nlocal:            3.4 ave          11 max           0 min
Histogram: 8 0 3 2 3 1 1 0 0 2
Nghost:         1855.3 ave        2080 max        1643 min
Histogram: 3 4 1 0 1 1 2 3 2 3
Neighs:         1151.4 ave        3415 max           0 min
Histogram: 8 0 1 3 2 2 1 0 1 2

Total # of neighbors = 23028
Ave neighs/atom = 338.64706
Ave special neighs/atom = 4.9411765
Neighbor list builds = 51
Dangerous builds = 37
unfix           1
min_style       fire
variable        tempstp    equal $(step)
variable        tempstp    equal 10070
variable        CellMinStep equal ${tempstp}
variable        CellMinStep equal 10070
minimize        1.0e-15 1.0e-15 10000 100000
WARNING: Using 'neigh_modify every 1 delay 0 check yes' setting during minimization (src/min.cpp:187)
----------------------------------------------------------
Using INTEL Package without Coprocessor.
Compiler: Intel LLVM C++ 202202.0 / Intel(R) oneAPI DPC++/C++ Compiler 2022.2.1 (2022.2.1.20221020)
SIMD compiler directives: Enabled
Precision: mixed
----------------------------------------------------------
Generated 6 of 6 mixed pair_coeff terms from arithmetic mixing rule
  Parameters for fire: 
    dmax delaystep dtgrow dtshrink alpha0 alphashrink tmax tmin    integrator halfstepback 
     0.1        20    1.1      0.5   0.25        0.99   10 0.02 eulerimplicit          yes 
WARNING: Bond/angle/dihedral extent > half of periodic box length (src/domain.cpp:940)
Per MPI rank memory allocation (min/avg/max) = 14.54 | 14.8 | 15.34 Mbytes
   Step          Temp          E_pair         E_mol          TotEng         Press     
     10070   0              160.48299      16.532362      177.01536      57201.36     
     20070   0.001285576    43.700465      27.50559       71.206312      393.933      
WARNING: Bond/angle/dihedral extent > half of periodic box length (src/domain.cpp:940)
Loop time of 2.03222 on 40 procs for 10000 steps with 68 atoms

94.0% CPU use with 20 MPI tasks x 2 OpenMP threads

Minimization stats:
  Stopping criterion = max iterations
  Energy initial, next-to-last, final = 
      177.015355525578   71.2060817458117    71.206055012467
  Force two-norm initial, final = 146.91498 0.42161484
  Force max component initial, final = 27.793228 0.10032009
  Final line search alpha, max atom move = 0 0
  Iterations, force evaluations = 10000 10534

MPI task timing breakdown:
Section |  min time  |  avg time  |  max time  |%varavg| %total
---------------------------------------------------------------
Pair    | 0.035665   | 0.34679    | 0.52301    |  30.7 | 17.06
Bond    | 0.0017176  | 0.26172    | 0.54172    |  37.6 | 12.88
Neigh   | 0.00076311 | 0.00079838 | 0.00082608 |   0.0 |  0.04
Comm    | 0.63838    | 1.0689     | 1.695      |  31.3 | 52.60
Output  | 3.2445e-05 | 4.2477e-05 | 5.0739e-05 |   0.0 |  0.00
Modify  | 0.00087774 | 0.081363   | 0.13792    |  17.0 |  4.00
Other   |            | 0.2726     |            |       | 13.41

Nlocal:            3.4 ave           9 max           0 min
Histogram: 5 1 0 3 5 3 1 0 1 1
Nghost:         1836.3 ave        1993 max        1645 min
Histogram: 4 0 0 2 1 4 3 2 1 3
Neighs:         1061.6 ave        2548 max           0 min
Histogram: 5 1 0 3 3 3 1 2 0 2

Total # of neighbors = 21232
Ave neighs/atom = 312.23529
Ave special neighs/atom = 4.9411765
Neighbor list builds = 3
Dangerous builds = 0
variable        AtomMinStep equal $(step)
variable        AtomMinStep equal 20070
variable        temppe     equal $(pe)
variable        temppe     equal 71.206055012466975995
variable        min_E      equal abs(${prev_E}-${temppe})
variable        min_E      equal abs(72.4830457473296-${temppe})
variable        min_E      equal abs(72.4830457473296-71.206055012467)
print           "${iter},${CellMinStep},${AtomMinStep},${AtomMinStep},$(pe),${min_E}" append p1_structure.min.csv screen no
if              "${min_E} < ${min_eval}" then "jump SELF break_min"
variable        prev_E     equal ${temppe}
variable        prev_E     equal 71.206055012467
next            iter
jump            SELF loop_min
min_style       cg
fix             1 all box/relax tri 50000 vmax 0.05
minimize        1.0e-15 1.0e-15 10000 100000
WARNING: Using 'neigh_modify every 1 delay 0 check yes' setting during minimization (src/min.cpp:187)
----------------------------------------------------------
Using INTEL Package without Coprocessor.
Compiler: Intel LLVM C++ 202202.0 / Intel(R) oneAPI DPC++/C++ Compiler 2022.2.1 (2022.2.1.20221020)
SIMD compiler directives: Enabled
Precision: mixed
----------------------------------------------------------
Generated 6 of 6 mixed pair_coeff terms from arithmetic mixing rule
WARNING: Bond/angle/dihedral extent > half of periodic box length (src/domain.cpp:940)
Per MPI rank memory allocation (min/avg/max) = 15.66 | 15.97 | 16.46 Mbytes
   Step          Temp          E_pair         E_mol          TotEng         Press          Volume    
     20070   0.001285576    43.700465      26.314757      70.015479      393.92869      1442.3962    
     20114   0.001285576    96.162187      180.15383      276.31627      37744.836      1167.1922    
WARNING: Bond/angle/dihedral extent > half of periodic box length (src/domain.cpp:940)
Loop time of 0.0916196 on 40 procs for 44 steps with 68 atoms

95.2% CPU use with 20 MPI tasks x 2 OpenMP threads

Minimization stats:
  Stopping criterion = linesearch alpha is zero
  Energy initial, next-to-last, final = 
      70.0152225385854  -75.5203025613046   75.6376090627639
  Force two-norm initial, final = 1809.3472 1357.366
  Force max component initial, final = 1061.1842 781.2988
  Final line search alpha, max atom move = 8.7739695e-15 6.8550918e-12
  Iterations, force evaluations = 44 181

MPI task timing breakdown:
Section |  min time  |  avg time  |  max time  |%varavg| %total
---------------------------------------------------------------
Pair    | 0.00038667 | 0.0088397  | 0.014577   |   5.1 |  9.65
Bond    | 5.5329e-05 | 0.0060204  | 0.011824   |   5.7 |  6.57
Neigh   | 0.016143   | 0.01792    | 0.019546   |   0.7 | 19.56
Comm    | 0.023524   | 0.034971   | 0.053243   |   5.3 | 38.17
Output  | 0          | 0          | 0          |   0.0 |  0.00
Modify  | 2.0339e-05 | 0.0017222  | 0.0035252  |   2.7 |  1.88
Other   |            | 0.02215    |            |       | 24.17

Nlocal:            3.4 ave           7 max           0 min
Histogram: 4 2 0 0 3 5 0 2 1 3
Nghost:        2172.35 ave        2358 max        1843 min
Histogram: 4 0 0 0 0 4 2 0 4 6
Neighs:         1298.5 ave        2912 max           0 min
Histogram: 4 2 0 1 5 2 1 2 1 2

Total # of neighbors = 25970
Ave neighs/atom = 381.91176
Ave special neighs/atom = 4.9411765
Neighbor list builds = 87
Dangerous builds = 62
unfix           1
min_style       fire
variable        tempstp    equal $(step)
variable        tempstp    equal 20114
variable        CellMinStep equal ${tempstp}
variable        CellMinStep equal 20114
minimize        1.0e-15 1.0e-15 10000 100000
WARNING: Using 'neigh_modify every 1 delay 0 check yes' setting during minimization (src/min.cpp:187)
----------------------------------------------------------
Using INTEL Package without Coprocessor.
Compiler: Intel LLVM C++ 202202.0 / Intel(R) oneAPI DPC++/C++ Compiler 2022.2.1 (2022.2.1.20221020)
SIMD compiler directives: Enabled
Precision: mixed
----------------------------------------------------------
Generated 6 of 6 mixed pair_coeff terms from arithmetic mixing rule
  Parameters for fire: 
    dmax delaystep dtgrow dtshrink alpha0 alphashrink tmax tmin    integrator halfstepback 
     0.1        20    1.1      0.5   0.25        0.99   10 0.02 eulerimplicit          yes 
WARNING: Bond/angle/dihedral extent > half of periodic box length (src/domain.cpp:940)
Per MPI rank memory allocation (min/avg/max) = 14.56 | 14.86 | 15.34 Mbytes
   Step          Temp          E_pair         E_mol          TotEng         Press     
     20114   0              96.162187      180.15383      276.31602      37744.826    
     30114   0.0026220448   36.751325      25.03101       61.782858     -1415.7952    
WARNING: Bond/angle/dihedral extent > half of periodic box length (src/domain.cpp:940)
Loop time of 2.22143 on 40 procs for 10000 steps with 68 atoms

93.1% CPU use with 20 MPI tasks x 2 OpenMP threads

Minimization stats:
  Stopping criterion = max iterations
  Energy initial, next-to-last, final = 
       276.31601765332   61.7823752805485   61.7823344455288
  Force two-norm initial, final = 1002.2803 0.28359898
  Force max component initial, final = 781.2988 0.069617149
  Final line search alpha, max atom move = 0 0
  Iterations, force evaluations = 10000 10533

MPI task timing breakdown:
Section |  min time  |  avg time  |  max time  |%varavg| %total
---------------------------------------------------------------
Pair    | 0.051036   | 0.43152    | 0.59929    |  20.5 | 19.43
Bond    | 0.0029516  | 0.32108    | 0.55463    |  33.0 | 14.45
Neigh   | 0.0017658  | 0.001834   | 0.0018991  |   0.1 |  0.08
Comm    | 0.69706    | 1.116      | 1.8679     |  29.0 | 50.24
Output  | 4.2603e-05 | 4.4007e-05 | 5.0459e-05 |   0.0 |  0.00
Modify  | 0.0012968  | 0.12209    | 0.17289    |  10.2 |  5.50
Other   |            | 0.2289     |            |       | 10.30

Nlocal:            3.4 ave           6 max           0 min
Histogram: 1 1 0 2 0 9 2 0 2 3
Nghost:         2180.9 ave        2273 max        2043 min
Histogram: 2 1 2 1 0 2 3 2 3 4
Neighs:        1269.05 ave        2339 max           0 min
Histogram: 1 1 0 2 8 1 2 0 2 3

Total # of neighbors = 25381
Ave neighs/atom = 373.25
Ave special neighs/atom = 4.9411765
Neighbor list builds = 4
Dangerous builds = 0
variable        AtomMinStep equal $(step)
variable        AtomMinStep equal 30114
variable        temppe     equal $(pe)
variable        temppe     equal 61.782334445528789502
variable        min_E      equal abs(${prev_E}-${temppe})
variable        min_E      equal abs(71.206055012467-${temppe})
variable        min_E      equal abs(71.206055012467-61.7823344455288)
print           "${iter},${CellMinStep},${AtomMinStep},${AtomMinStep},$(pe),${min_E}" append p1_structure.min.csv screen no
if              "${min_E} < ${min_eval}" then "jump SELF break_min"
variable        prev_E     equal ${temppe}
variable        prev_E     equal 61.7823344455288
next            iter
jump            SELF loop_min
min_style       cg
fix             1 all box/relax tri 50000 vmax 0.05
minimize        1.0e-15 1.0e-15 10000 100000
WARNING: Using 'neigh_modify every 1 delay 0 check yes' setting during minimization (src/min.cpp:187)
----------------------------------------------------------
Using INTEL Package without Coprocessor.
Compiler: Intel LLVM C++ 202202.0 / Intel(R) oneAPI DPC++/C++ Compiler 2022.2.1 (2022.2.1.20221020)
SIMD compiler directives: Enabled
Precision: mixed
----------------------------------------------------------
Generated 6 of 6 mixed pair_coeff terms from arithmetic mixing rule
WARNING: Bond/angle/dihedral extent > half of periodic box length (src/domain.cpp:940)
Per MPI rank memory allocation (min/avg/max) = 15.69 | 16.08 | 16.48 Mbytes
   Step          Temp          E_pair         E_mol          TotEng         Press          Volume    
     30114   0.0026220448   36.751325      25.03101       61.782858     -1415.7952      1167.1922    
     30291   0.0026220448   87.037018      20.09314       107.13068      46870.302      860.9284     
WARNING: Bond/angle/dihedral extent > half of periodic box length (src/domain.cpp:940)
Loop time of 0.370959 on 40 procs for 177 steps with 68 atoms

96.2% CPU use with 20 MPI tasks x 2 OpenMP threads

Minimization stats:
  Stopping criterion = linesearch alpha is zero
  Energy initial, next-to-last, final = 
      61.7823344454123  -116.852511846221  -116.196991760947
  Force two-norm initial, final = 1516.3072 164.98991
  Force max component initial, final = 891.34455 116.46889
  Final line search alpha, max atom move = 3.2020387e-13 3.7293789e-11
  Iterations, force evaluations = 177 670

MPI task timing breakdown:
Section |  min time  |  avg time  |  max time  |%varavg| %total
---------------------------------------------------------------
Pair    | 0.02347    | 0.048001   | 0.061858   |   4.8 | 12.94
Bond    | 0.0005023  | 0.027004   | 0.042677   |   9.2 |  7.28
Neigh   | 0.06567    | 0.074134   | 0.080428   |   1.4 | 19.98
Comm    | 0.090982   | 0.12489    | 0.18926    |   7.8 | 33.67
Output  | 0          | 0          | 0          |   0.0 |  0.00
Modify  | 0.0025541  | 0.010259   | 0.014295   |   3.4 |  2.77
Other   |            | 0.08667    |            |       | 23.36

Nlocal:            3.4 ave           6 max           1 min
Histogram: 2 0 3 0 8 0 2 0 2 3
Nghost:         2972.4 ave        3141 max        2772 min
Histogram: 2 2 1 3 0 1 3 3 2 3
Neighs:         1752.6 ave        3214 max         489 min
Histogram: 2 1 2 6 2 1 1 1 1 3

Total # of neighbors = 35052
Ave neighs/atom = 515.47059
Ave special neighs/atom = 4.9411765
Neighbor list builds = 351
Dangerous builds = 243
unfix           1
min_style       fire
variable        tempstp    equal $(step)
variable        tempstp    equal 30291
variable        CellMinStep equal ${tempstp}
variable        CellMinStep equal 30291
minimize        1.0e-15 1.0e-15 10000 100000
WARNING: Using 'neigh_modify every 1 delay 0 check yes' setting during minimization (src/min.cpp:187)
----------------------------------------------------------
Using INTEL Package without Coprocessor.
Compiler: Intel LLVM C++ 202202.0 / Intel(R) oneAPI DPC++/C++ Compiler 2022.2.1 (2022.2.1.20221020)
SIMD compiler directives: Enabled
Precision: mixed
----------------------------------------------------------
Generated 6 of 6 mixed pair_coeff terms from arithmetic mixing rule
  Parameters for fire: 
    dmax delaystep dtgrow dtshrink alpha0 alphashrink tmax tmin    integrator halfstepback 
     0.1        20    1.1      0.5   0.25        0.99   10 0.02 eulerimplicit          yes 
WARNING: Bond/angle/dihedral extent > half of periodic box length (src/domain.cpp:940)
Per MPI rank memory allocation (min/avg/max) = 14.72 | 15.07 | 15.47 Mbytes
   Step          Temp          E_pair         E_mol          TotEng         Press     
     30291   0              87.037018      19.43762       106.47464      46870.274    
     40291   0.0046958526   39.087038      22.183933      61.271908      16174.562    
WARNING: Bond/angle/dihedral extent > half of periodic box length (src/domain.cpp:940)
Loop time of 2.5143 on 40 procs for 10000 steps with 68 atoms

95.4% CPU use with 20 MPI tasks x 2 OpenMP threads

Minimization stats:
  Stopping criterion = max iterations
  Energy initial, next-to-last, final = 
      106.474638015296   61.2709952721109    61.270970588023
  Force two-norm initial, final = 34.837681 0.64614238
  Force max component initial, final = 9.0101159 0.12926655
  Final line search alpha, max atom move = 0 0
  Iterations, force evaluations = 10000 10529

MPI task timing breakdown:
Section |  min time  |  avg time  |  max time  |%varavg| %total
---------------------------------------------------------------
Pair    | 0.2819     | 0.53322    | 0.64875    |  12.1 | 21.21
Bond    | 0.013625   | 0.36108    | 0.55393    |  29.9 | 14.36
Neigh   | 0.00053784 | 0.00056922 | 0.00061525 |   0.0 |  0.02
Comm    | 0.8668     | 1.1726     | 1.791      |  24.6 | 46.64
Output  | 4.824e-05  | 4.9789e-05 | 5.954e-05  |   0.0 |  0.00
Modify  | 0.1139     | 0.19178    | 0.24784    |   7.7 |  7.63
Other   |            | 0.255      |            |       | 10.14

Nlocal:            3.4 ave           6 max           1 min
Histogram: 1 0 2 0 10 0 4 0 1 2
Nghost:         2896.5 ave        2981 max        2808 min
Histogram: 4 1 1 2 2 1 2 1 3 3
Neighs:        1703.85 ave        3051 max         495 min
Histogram: 1 1 1 7 3 3 1 1 0 2

Total # of neighbors = 34077
Ave neighs/atom = 501.13235
Ave special neighs/atom = 4.9411765
Neighbor list builds = 2
Dangerous builds = 0
variable        AtomMinStep equal $(step)
variable        AtomMinStep equal 40291
variable        temppe     equal $(pe)
variable        temppe     equal 61.270970588023040193
variable        min_E      equal abs(${prev_E}-${temppe})
variable        min_E      equal abs(61.7823344455288-${temppe})
variable        min_E      equal abs(61.7823344455288-61.270970588023)
print           "${iter},${CellMinStep},${AtomMinStep},${AtomMinStep},$(pe),${min_E}" append p1_structure.min.csv screen no
if              "${min_E} < ${min_eval}" then "jump SELF break_min"
variable        prev_E     equal ${temppe}
variable        prev_E     equal 61.270970588023
next            iter
jump            SELF loop_min
min_style       cg
fix             1 all box/relax tri 50000 vmax 0.05
minimize        1.0e-15 1.0e-15 10000 100000
WARNING: Using 'neigh_modify every 1 delay 0 check yes' setting during minimization (src/min.cpp:187)
----------------------------------------------------------
Using INTEL Package without Coprocessor.
Compiler: Intel LLVM C++ 202202.0 / Intel(R) oneAPI DPC++/C++ Compiler 2022.2.1 (2022.2.1.20221020)
SIMD compiler directives: Enabled
Precision: mixed
----------------------------------------------------------
Generated 6 of 6 mixed pair_coeff terms from arithmetic mixing rule
WARNING: Bond/angle/dihedral extent > half of periodic box length (src/domain.cpp:940)
Per MPI rank memory allocation (min/avg/max) = 15.85 | 16.21 | 16.59 Mbytes
   Step          Temp          E_pair         E_mol          TotEng         Press          Volume    
     40291   0.0046958526   39.087053      21.970924      61.058916      16174.554      860.9284     
     40316   0.0046958526   74.623326      115.26939      189.89366      49679.998      788.30662    
WARNING: Bond/angle/dihedral extent > half of periodic box length (src/domain.cpp:940)
Loop time of 0.0793903 on 40 procs for 25 steps with 68 atoms

98.1% CPU use with 20 MPI tasks x 2 OpenMP threads

Minimization stats:
  Stopping criterion = linesearch alpha is zero
  Energy initial, next-to-last, final = 
       61.057977693961   39.8945337935714   136.937010424361
  Force two-norm initial, final = 739.2876 880.26759
  Force max component initial, final = 457.56822 630.01935
  Final line search alpha, max atom move = 2.0014449e-13 1.260949e-10
  Iterations, force evaluations = 25 149

MPI task timing breakdown:
Section |  min time  |  avg time  |  max time  |%varavg| %total
---------------------------------------------------------------
Pair    | 0.007686   | 0.012711   | 0.015676   |   1.9 | 16.01
Bond    | 0.00012466 | 0.0062912  | 0.009431   |   4.1 |  7.92
Neigh   | 0.011415   | 0.012343   | 0.013547   |   0.6 | 15.55
Comm    | 0.020075   | 0.026849   | 0.039372   |   3.4 | 33.82
Output  | 0          | 0          | 0          |   0.0 |  0.00
Modify  | 0.0008228  | 0.0028896  | 0.0038941  |   1.7 |  3.64
Other   |            | 0.01831    |            |       | 23.06

Nlocal:            3.4 ave           6 max           1 min
Histogram: 1 0 3 0 8 0 5 0 1 2
Nghost:         3142.4 ave        3211 max        3036 min
Histogram: 2 0 2 2 1 1 1 6 2 3
Neighs:         1872.8 ave        3402 max         537 min
Histogram: 1 2 1 4 4 5 0 1 0 2

Total # of neighbors = 37456
Ave neighs/atom = 550.82353
Ave special neighs/atom = 4.9411765
Neighbor list builds = 49
Dangerous builds = 31
unfix           1
min_style       fire
variable        tempstp    equal $(step)
variable        tempstp    equal 40316
variable        CellMinStep equal ${tempstp}
variable        CellMinStep equal 40316
minimize        1.0e-15 1.0e-15 10000 100000
WARNING: Using 'neigh_modify every 1 delay 0 check yes' setting during minimization (src/min.cpp:187)
----------------------------------------------------------
Using INTEL Package without Coprocessor.
Compiler: Intel LLVM C++ 202202.0 / Intel(R) oneAPI DPC++/C++ Compiler 2022.2.1 (2022.2.1.20221020)
SIMD compiler directives: Enabled
Precision: mixed
----------------------------------------------------------
Generated 6 of 6 mixed pair_coeff terms from arithmetic mixing rule
  Parameters for fire: 
    dmax delaystep dtgrow dtshrink alpha0 alphashrink tmax tmin    integrator halfstepback 
     0.1        20    1.1      0.5   0.25        0.99   10 0.02 eulerimplicit          yes 
WARNING: Bond/angle/dihedral extent > half of periodic box length (src/domain.cpp:940)
Per MPI rank memory allocation (min/avg/max) = 14.77 | 15.13 | 15.51 Mbytes
   Step          Temp          E_pair         E_mol          TotEng         Press     
     40316   0              74.623326      115.26939      189.89272      49679.943    
     50316   0.0019108007   45.480629      23.23176       68.71277       32587.004    
WARNING: Bond/angle/dihedral extent > half of periodic box length (src/domain.cpp:940)
Loop time of 2.67665 on 40 procs for 10000 steps with 68 atoms

95.2% CPU use with 20 MPI tasks x 2 OpenMP threads

Minimization stats:
  Stopping criterion = max iterations
  Energy initial, next-to-last, final = 
       189.89271803326   68.7123494181761   68.7123884322367
  Force two-norm initial, final = 785.82306 0.15624894
  Force max component initial, final = 630.01935 0.031763852
  Final line search alpha, max atom move = 0 0
  Iterations, force evaluations = 10000 10533

MPI task timing breakdown:
Section |  min time  |  avg time  |  max time  |%varavg| %total
---------------------------------------------------------------
Pair    | 0.3724     | 0.58398    | 0.71976    |  11.5 | 21.82
Bond    | 0.0089506  | 0.35231    | 0.54115    |  30.9 | 13.16
Neigh   | 0.00053021 | 0.00056735 | 0.00062991 |   0.0 |  0.02
Comm    | 0.92871    | 1.2319     | 1.8587     |  24.8 | 46.02
Output  | 5.239e-05  | 5.3798e-05 | 6.0316e-05 |   0.0 |  0.00
Modify  | 0.12425    | 0.2184     | 0.27097    |   8.5 |  8.16
Other   |            | 0.2895     |            |       | 10.82

Nlocal:            3.4 ave           5 max           2 min
Histogram: 2 0 0 11 0 0 4 0 0 3
Nghost:        3172.85 ave        3282 max        3056 min
Histogram: 1 1 3 2 2 3 3 2 1 2
Neighs:        1870.65 ave        2780 max        1103 min
Histogram: 2 0 0 11 0 0 4 0 0 3

Total # of neighbors = 37413
Ave neighs/atom = 550.19118
Ave special neighs/atom = 4.9411765
Neighbor list builds = 2
Dangerous builds = 0
variable        AtomMinStep equal $(step)
variable        AtomMinStep equal 50316
variable        temppe     equal $(pe)
variable        temppe     equal 68.712388432236707558
variable        min_E      equal abs(${prev_E}-${temppe})
variable        min_E      equal abs(61.270970588023-${temppe})
variable        min_E      equal abs(61.270970588023-68.7123884322367)
print           "${iter},${CellMinStep},${AtomMinStep},${AtomMinStep},$(pe),${min_E}" append p1_structure.min.csv screen no
if              "${min_E} < ${min_eval}" then "jump SELF break_min"
variable        prev_E     equal ${temppe}
variable        prev_E     equal 68.7123884322367
next            iter
jump            SELF loop_min
min_style       cg
fix             1 all box/relax tri 50000 vmax 0.05
minimize        1.0e-15 1.0e-15 10000 100000
WARNING: Using 'neigh_modify every 1 delay 0 check yes' setting during minimization (src/min.cpp:187)
----------------------------------------------------------
Using INTEL Package without Coprocessor.
Compiler: Intel LLVM C++ 202202.0 / Intel(R) oneAPI DPC++/C++ Compiler 2022.2.1 (2022.2.1.20221020)
SIMD compiler directives: Enabled
Precision: mixed
----------------------------------------------------------
Generated 6 of 6 mixed pair_coeff terms from arithmetic mixing rule
WARNING: Bond/angle/dihedral extent > half of periodic box length (src/domain.cpp:940)
Per MPI rank memory allocation (min/avg/max) = 15.9 | 16.29 | 16.63 Mbytes
   Step          Temp          E_pair         E_mol          TotEng         Press          Volume    
     50316   0.0019108007   45.480633      25.345935      70.82695       32587.006      788.30662    
     50349   0.0019108007   64.176646      23.975891      88.152919      49358.58       755.43154    
WARNING: Bond/angle/dihedral extent > half of periodic box length (src/domain.cpp:940)
Loop time of 0.0807661 on 40 procs for 33 steps with 68 atoms

96.2% CPU use with 20 MPI tasks x 2 OpenMP threads

Minimization stats:
  Stopping criterion = linesearch alpha is zero
  Energy initial, next-to-last, final = 
      70.8265682910944   62.2003948276192   64.1800696432851
  Force two-norm initial, final = 376.43994 51.889345
  Force max component initial, final = 272.84309 47.060202
  Final line search alpha, max atom move = 3.958005e-12 1.8626451e-10
  Iterations, force evaluations = 33 144

MPI task timing breakdown:
Section |  min time  |  avg time  |  max time  |%varavg| %total
---------------------------------------------------------------
Pair    | 0.0088081  | 0.012996   | 0.01471    |   1.2 | 16.09
Bond    | 0.00014053 | 0.0060167  | 0.0091702  |   4.1 |  7.45
Neigh   | 0.013214   | 0.01416    | 0.015523   |   0.6 | 17.53
Comm    | 0.021346   | 0.026598   | 0.035591   |   2.9 | 32.93
Output  | 0          | 0          | 0          |   0.0 |  0.00
Modify  | 0.0010061  | 0.0029953  | 0.0041491  |   1.6 |  3.71
Other   |            | 0.018      |            |       | 22.29

Nlocal:            3.4 ave           5 max           2 min
Histogram: 5 0 0 5 0 0 7 0 0 3
Nghost:        3324.15 ave        3420 max        3230 min
Histogram: 2 1 1 3 4 3 2 1 1 2
Neighs:         1959.8 ave        2912 max        1140 min
Histogram: 5 0 0 5 0 0 7 0 0 3

Total # of neighbors = 39196
Ave neighs/atom = 576.41176
Ave special neighs/atom = 4.9411765
Neighbor list builds = 52
Dangerous builds = 35
unfix           1
min_style       fire
variable        tempstp    equal $(step)
variable        tempstp    equal 50349
variable        CellMinStep equal ${tempstp}
variable        CellMinStep equal 50349
minimize        1.0e-15 1.0e-15 10000 100000
WARNING: Using 'neigh_modify every 1 delay 0 check yes' setting during minimization (src/min.cpp:187)
----------------------------------------------------------
Using INTEL Package without Coprocessor.
Compiler: Intel LLVM C++ 202202.0 / Intel(R) oneAPI DPC++/C++ Compiler 2022.2.1 (2022.2.1.20221020)
SIMD compiler directives: Enabled
Precision: mixed
----------------------------------------------------------
Generated 6 of 6 mixed pair_coeff terms from arithmetic mixing rule
  Parameters for fire: 
    dmax delaystep dtgrow dtshrink alpha0 alphashrink tmax tmin    integrator halfstepback 
     0.1        20    1.1      0.5   0.25        0.99   10 0.02 eulerimplicit          yes 
WARNING: Bond/angle/dihedral extent > half of periodic box length (src/domain.cpp:940)
Per MPI rank memory allocation (min/avg/max) = 14.78 | 15.2 | 15.56 Mbytes
   Step          Temp          E_pair         E_mol          TotEng         Press     
     50349   0              64.176646      23.975891      88.152537      49358.557    
     60349   0.00071708026  53.15575       29.906492      83.062385      42772.899    
WARNING: Bond/angle/dihedral extent > half of periodic box length (src/domain.cpp:940)
Loop time of 2.70524 on 40 procs for 10000 steps with 68 atoms

95.7% CPU use with 20 MPI tasks x 2 OpenMP threads

Minimization stats:
  Stopping criterion = max iterations
  Energy initial, next-to-last, final = 
      88.1525369839572   83.0622835182716   83.0622420520674
  Force two-norm initial, final = 13.14502 0.10220156
  Force max component initial, final = 3.4167481 0.023169115
  Final line search alpha, max atom move = 0 0
  Iterations, force evaluations = 10000 10532

MPI task timing breakdown:
Section |  min time  |  avg time  |  max time  |%varavg| %total
---------------------------------------------------------------
Pair    | 0.36384    | 0.61078    | 0.68015    |   9.4 | 22.58
Bond    | 0.0073056  | 0.33353    | 0.55657    |  31.8 | 12.33
Neigh   | 0.00025557 | 0.00030072 | 0.00033478 |   0.0 |  0.01
Comm    | 0.93127    | 1.2507     | 1.8266     |  22.6 | 46.23
Output  | 6.7191e-05 | 6.8681e-05 | 7.8226e-05 |   0.0 |  0.00
Modify  | 0.12751    | 0.22931    | 0.2858     |   7.0 |  8.48
Other   |            | 0.2805     |            |       | 10.37

Nlocal:            3.4 ave           5 max           1 min
Histogram: 1 0 3 0 0 7 0 5 0 4
Nghost:         3292.1 ave        3399 max        3151 min
Histogram: 2 1 1 0 2 4 3 4 0 3
Neighs:         1957.7 ave        2933 max         577 min
Histogram: 1 0 3 0 7 0 0 5 0 4

Total # of neighbors = 39154
Ave neighs/atom = 575.79412
Ave special neighs/atom = 4.9411765
Neighbor list builds = 1
Dangerous builds = 0
variable        AtomMinStep equal $(step)
variable        AtomMinStep equal 60349
variable        temppe     equal $(pe)
variable        temppe     equal 83.062242052067432496
variable        min_E      equal abs(${prev_E}-${temppe})
variable        min_E      equal abs(68.7123884322367-${temppe})
variable        min_E      equal abs(68.7123884322367-83.0622420520674)
print           "${iter},${CellMinStep},${AtomMinStep},${AtomMinStep},$(pe),${min_E}" append p1_structure.min.csv screen no
if              "${min_E} < ${min_eval}" then "jump SELF break_min"
variable        prev_E     equal ${temppe}
variable        prev_E     equal 83.0622420520674
next            iter
jump            SELF loop_min
min_style       cg
fix             1 all box/relax tri 50000 vmax 0.05
minimize        1.0e-15 1.0e-15 10000 100000
WARNING: Using 'neigh_modify every 1 delay 0 check yes' setting during minimization (src/min.cpp:187)
----------------------------------------------------------
Using INTEL Package without Coprocessor.
Compiler: Intel LLVM C++ 202202.0 / Intel(R) oneAPI DPC++/C++ Compiler 2022.2.1 (2022.2.1.20221020)
SIMD compiler directives: Enabled
Precision: mixed
----------------------------------------------------------
Generated 6 of 6 mixed pair_coeff terms from arithmetic mixing rule
WARNING: Bond/angle/dihedral extent > half of periodic box length (src/domain.cpp:940)
Per MPI rank memory allocation (min/avg/max) = 15.91 | 16.35 | 16.68 Mbytes
   Step          Temp          E_pair         E_mol          TotEng         Press          Volume    
     60349   0.00071708026  53.155752      29.906492      83.062387      42772.792      755.43154    
     60403   0.00071708026  60.300436      39.435506      99.736085      39116.521      743.06128    
WARNING: Bond/angle/dihedral extent > half of periodic box length (src/domain.cpp:940)
Loop time of 0.131173 on 40 procs for 54 steps with 68 atoms

92.8% CPU use with 20 MPI tasks x 2 OpenMP threads

Minimization stats:
  Stopping criterion = linesearch alpha is zero
  Energy initial, next-to-last, final = 
      83.0622434580214   79.5510599381888   90.7155640388692
  Force two-norm initial, final = 523.88989 420.17318
  Force max component initial, final = 484.80355 260.511
  Final line search alpha, max atom move = 8.2003779e-13 2.1362886e-10
  Iterations, force evaluations = 54 235

MPI task timing breakdown:
Section |  min time  |  avg time  |  max time  |%varavg| %total
---------------------------------------------------------------
Pair    | 0.010352   | 0.020853   | 0.024372   |   2.1 | 15.90
Bond    | 0.00020593 | 0.0092193  | 0.01529    |   5.5 |  7.03
Neigh   | 0.021094   | 0.023069   | 0.025003   |   0.7 | 17.59
Comm    | 0.032774   | 0.043572   | 0.066083   |   4.3 | 33.22
Output  | 0          | 0          | 0          |   0.0 |  0.00
Modify  | 0.0014173  | 0.0044876  | 0.0062859  |   2.3 |  3.42
Other   |            | 0.02997    |            |       | 22.85

Nlocal:            3.4 ave           5 max           1 min
Histogram: 1 0 3 0 0 7 0 5 0 4
Nghost:         3315.8 ave        3444 max        3199 min
Histogram: 2 1 1 3 5 1 3 2 1 1
Neighs:         1987.8 ave        2973 max         580 min
Histogram: 1 0 3 0 7 0 0 5 0 4

Total # of neighbors = 39756
Ave neighs/atom = 584.64706
Ave special neighs/atom = 4.9411765
Neighbor list builds = 86
Dangerous builds = 53
unfix           1
min_style       fire
variable        tempstp    equal $(step)
variable        tempstp    equal 60403
variable        CellMinStep equal ${tempstp}
variable        CellMinStep equal 60403
minimize        1.0e-15 1.0e-15 10000 100000
WARNING: Using 'neigh_modify every 1 delay 0 check yes' setting during minimization (src/min.cpp:187)
----------------------------------------------------------
Using INTEL Package without Coprocessor.
Compiler: Intel LLVM C++ 202202.0 / Intel(R) oneAPI DPC++/C++ Compiler 2022.2.1 (2022.2.1.20221020)
SIMD compiler directives: Enabled
Precision: mixed
----------------------------------------------------------
Generated 6 of 6 mixed pair_coeff terms from arithmetic mixing rule
  Parameters for fire: 
    dmax delaystep dtgrow dtshrink alpha0 alphashrink tmax tmin    integrator halfstepback 
     0.1        20    1.1      0.5   0.25        0.99   10 0.02 eulerimplicit          yes 
WARNING: Bond/angle/dihedral extent > half of periodic box length (src/domain.cpp:940)
Per MPI rank memory allocation (min/avg/max) = 14.86 | 15.27 | 15.58 Mbytes
   Step          Temp          E_pair         E_mol          TotEng         Press     
     60403   0              60.300436      39.435506      99.735942      39116.512    
     70403   1.2742079e-08  59.603077      28.136115      87.739192      49511.518    
WARNING: Bond/angle/dihedral extent > half of periodic box length (src/domain.cpp:940)
Loop time of 2.61751 on 40 procs for 10000 steps with 68 atoms

96.1% CPU use with 20 MPI tasks x 2 OpenMP threads

Minimization stats:
  Stopping criterion = max iterations
  Energy initial, next-to-last, final = 
      99.7359421166185   87.7391869914966    87.739191967526
  Force two-norm initial, final = 282.39513 0.009174989
  Force max component initial, final = 195.7965 0.003039197
  Final line search alpha, max atom move = 0 0
  Iterations, force evaluations = 10000 10518

MPI task timing breakdown:
Section |  min time  |  avg time  |  max time  |%varavg| %total
---------------------------------------------------------------
Pair    | 0.25362    | 0.60482    | 0.68451    |  12.0 | 23.11
Bond    | 0.0066907  | 0.31992    | 0.55475    |  34.3 | 12.22
Neigh   | 0          | 0          | 0          |   0.0 |  0.00
Comm    | 0.85686    | 1.1954     | 1.9596     |  25.9 | 45.67
Output  | 5.1698e-05 | 5.3153e-05 | 6.0022e-05 |   0.0 |  0.00
Modify  | 0.12767    | 0.21343    | 0.26337    |   5.8 |  8.15
Other   |            | 0.2838     |            |       | 10.84

Nlocal:            3.4 ave           5 max           1 min
Histogram: 1 0 3 0 0 7 0 5 0 4
Nghost:         3315.8 ave        3444 max        3199 min
Histogram: 2 1 1 3 5 1 3 2 1 1
Neighs:        1988.25 ave        2974 max         580 min
Histogram: 1 0 3 0 7 0 0 5 0 4

Total # of neighbors = 39765
Ave neighs/atom = 584.77941
Ave special neighs/atom = 4.9411765
Neighbor list builds = 0
Dangerous builds = 0
variable        AtomMinStep equal $(step)
variable        AtomMinStep equal 70403
variable        temppe     equal $(pe)
variable        temppe     equal 87.739191967525954396
variable        min_E      equal abs(${prev_E}-${temppe})
variable        min_E      equal abs(83.0622420520674-${temppe})
variable        min_E      equal abs(83.0622420520674-87.739191967526)
print           "${iter},${CellMinStep},${AtomMinStep},${AtomMinStep},$(pe),${min_E}" append p1_structure.min.csv screen no
if              "${min_E} < ${min_eval}" then "jump SELF break_min"
variable        prev_E     equal ${temppe}
variable        prev_E     equal 87.739191967526
next            iter
jump            SELF loop_min
min_style       cg
fix             1 all box/relax tri 50000 vmax 0.05
minimize        1.0e-15 1.0e-15 10000 100000
WARNING: Using 'neigh_modify every 1 delay 0 check yes' setting during minimization (src/min.cpp:187)
----------------------------------------------------------
Using INTEL Package without Coprocessor.
Compiler: Intel LLVM C++ 202202.0 / Intel(R) oneAPI DPC++/C++ Compiler 2022.2.1 (2022.2.1.20221020)
SIMD compiler directives: Enabled
Precision: mixed
----------------------------------------------------------
Generated 6 of 6 mixed pair_coeff terms from arithmetic mixing rule
WARNING: Bond/angle/dihedral extent > half of periodic box length (src/domain.cpp:940)
Per MPI rank memory allocation (min/avg/max) = 15.98 | 16.4 | 16.7 Mbytes
   Step          Temp          E_pair         E_mol          TotEng         Press          Volume    
     70403   1.2742079e-08  59.603066      28.136115      87.739181      49511.513      743.06128    
     70431   1.2742079e-08  59.098389      29.030268      88.128657      46641.759      741.09945    
WARNING: Bond/angle/dihedral extent > half of periodic box length (src/domain.cpp:940)
Loop time of 0.0701517 on 40 procs for 28 steps with 68 atoms

98.9% CPU use with 20 MPI tasks x 2 OpenMP threads

Minimization stats:
  Stopping criterion = linesearch alpha is zero
  Energy initial, next-to-last, final = 
      87.7391807110265   86.1160610817201   86.6980910661536
  Force two-norm initial, final = 495.20509 140.61204
  Force max component initial, final = 473.81777 96.380629
  Final line search alpha, max atom move = 5.1436674e-13 4.957499e-11
  Iterations, force evaluations = 28 130

MPI task timing breakdown:
Section |  min time  |  avg time  |  max time  |%varavg| %total
---------------------------------------------------------------
Pair    | 0.0057576  | 0.011349   | 0.013248   |   1.5 | 16.18
Bond    | 0.00010241 | 0.0050423  | 0.0082828  |   4.1 |  7.19
Neigh   | 0.010809   | 0.011823   | 0.012771   |   0.5 | 16.85
Comm    | 0.017615   | 0.023146   | 0.035442   |   3.2 | 32.99
Output  | 0          | 0          | 0          |   0.0 |  0.00
Modify  | 0.00077391 | 0.002415   | 0.003582   |   1.7 |  3.44
Other   |            | 0.01638    |            |       | 23.34

Nlocal:            3.4 ave           5 max           1 min
Histogram: 1 0 3 0 0 7 0 5 0 4
Nghost:         3302.9 ave        3382 max        3196 min
Histogram: 2 1 1 1 2 1 5 3 3 1
Neighs:        1990.65 ave        2963 max         581 min
Histogram: 1 0 3 0 7 0 0 5 0 4

Total # of neighbors = 39813
Ave neighs/atom = 585.48529
Ave special neighs/atom = 4.9411765
Neighbor list builds = 42
Dangerous builds = 32
unfix           1
min_style       fire
variable        tempstp    equal $(step)
variable        tempstp    equal 70431
variable        CellMinStep equal ${tempstp}
variable        CellMinStep equal 70431
minimize        1.0e-15 1.0e-15 10000 100000
WARNING: Using 'neigh_modify every 1 delay 0 check yes' setting during minimization (src/min.cpp:187)
----------------------------------------------------------
Using INTEL Package without Coprocessor.
Compiler: Intel LLVM C++ 202202.0 / Intel(R) oneAPI DPC++/C++ Compiler 2022.2.1 (2022.2.1.20221020)
SIMD compiler directives: Enabled
Precision: mixed
----------------------------------------------------------
Generated 6 of 6 mixed pair_coeff terms from arithmetic mixing rule
  Parameters for fire: 
    dmax delaystep dtgrow dtshrink alpha0 alphashrink tmax tmin    integrator halfstepback 
     0.1        20    1.1      0.5   0.25        0.99   10 0.02 eulerimplicit          yes 
WARNING: Bond/angle/dihedral extent > half of periodic box length (src/domain.cpp:940)
Per MPI rank memory allocation (min/avg/max) = 14.86 | 15.28 | 15.58 Mbytes
   Step          Temp          E_pair         E_mol          TotEng         Press     
     70431   0              59.098389      29.030268      88.128657      46641.759    
     80431   1.201166e-11   60.145716      26.818802      86.964518      50567.628    
WARNING: Bond/angle/dihedral extent > half of periodic box length (src/domain.cpp:940)
Loop time of 3.04063 on 40 procs for 10000 steps with 68 atoms

96.4% CPU use with 20 MPI tasks x 2 OpenMP threads

Minimization stats:
  Stopping criterion = max iterations
  Energy initial, next-to-last, final = 
      88.1286568719341    86.964571265657   86.9645177931098
  Force two-norm initial, final = 68.741645 0.011736035
  Force max component initial, final = 44.971169 0.0036112045
  Final line search alpha, max atom move = 0 0
  Iterations, force evaluations = 10000 12076

MPI task timing breakdown:
Section |  min time  |  avg time  |  max time  |%varavg| %total
---------------------------------------------------------------
Pair    | 0.29175    | 0.68594    | 0.78857    |  12.9 | 22.56
Bond    | 0.008111   | 0.36232    | 0.63093    |  36.1 | 11.92
Neigh   | 0          | 0          | 0          |   0.0 |  0.00
Comm    | 1.0538     | 1.4376     | 2.3028     |  26.6 | 47.28
Output  | 4.2683e-05 | 4.3383e-05 | 4.9185e-05 |   0.0 |  0.00
Modify  | 0.14771    | 0.25746    | 0.30831    |   7.7 |  8.47
Other   |            | 0.2973     |            |       |  9.78

Nlocal:            3.4 ave           5 max           1 min
Histogram: 1 0 3 0 0 7 0 5 0 4
Nghost:         3308.3 ave        3391 max        3196 min
Histogram: 2 0 1 3 1 1 3 5 3 1
Neighs:        1991.75 ave        2964 max         581 min
Histogram: 1 0 3 0 7 0 0 5 0 4

Total # of neighbors = 39835
Ave neighs/atom = 585.80882
Ave special neighs/atom = 4.9411765
Neighbor list builds = 0
Dangerous builds = 0
variable        AtomMinStep equal $(step)
variable        AtomMinStep equal 80431
variable        temppe     equal $(pe)
variable        temppe     equal 86.964517793109820332
variable        min_E      equal abs(${prev_E}-${temppe})
variable        min_E      equal abs(87.739191967526-${temppe})
variable        min_E      equal abs(87.739191967526-86.9645177931098)
print           "${iter},${CellMinStep},${AtomMinStep},${AtomMinStep},$(pe),${min_E}" append p1_structure.min.csv screen no
if              "${min_E} < ${min_eval}" then "jump SELF break_min"
variable        prev_E     equal ${temppe}
variable        prev_E     equal 86.9645177931098
next            iter
jump            SELF loop_min
min_style       cg
fix             1 all box/relax tri 50000 vmax 0.05
minimize        1.0e-15 1.0e-15 10000 100000
WARNING: Using 'neigh_modify every 1 delay 0 check yes' setting during minimization (src/min.cpp:187)
----------------------------------------------------------
Using INTEL Package without Coprocessor.
Compiler: Intel LLVM C++ 202202.0 / Intel(R) oneAPI DPC++/C++ Compiler 2022.2.1 (2022.2.1.20221020)
SIMD compiler directives: Enabled
Precision: mixed
----------------------------------------------------------
Generated 6 of 6 mixed pair_coeff terms from arithmetic mixing rule
WARNING: Bond/angle/dihedral extent > half of periodic box length (src/domain.cpp:940)
Per MPI rank memory allocation (min/avg/max) = 15.98 | 16.41 | 16.7 Mbytes
   Step          Temp          E_pair         E_mol          TotEng         Press          Volume    
     80431   1.201166e-11   60.145716      26.818802      86.964518      50567.628      741.09945    
     80446   1.201166e-11   70.505703      138.13873      208.64443      21262          734.70523    
WARNING: Bond/angle/dihedral extent > half of periodic box length (src/domain.cpp:940)
Loop time of 0.033617 on 40 procs for 15 steps with 68 atoms

98.7% CPU use with 20 MPI tasks x 2 OpenMP threads

Minimization stats:
  Stopping criterion = linesearch alpha is zero
  Energy initial, next-to-last, final = 
      86.9645177937795   85.9898630946304   203.981777455092
  Force two-norm initial, final = 409.81127 1372.6207
  Force max component initial, final = 386.19312 940.06636
  Final line search alpha, max atom move = 2.0185041e-12 1.8975278e-09
  Iterations, force evaluations = 15 63

MPI task timing breakdown:
Section |  min time  |  avg time  |  max time  |%varavg| %total
---------------------------------------------------------------
Pair    | 0.0028373  | 0.0054749  | 0.0066175  |   1.2 | 16.29
Bond    | 5.2418e-05 | 0.0023713  | 0.0040878  |   2.8 |  7.05
Neigh   | 0.0047245  | 0.0052008  | 0.0056126  |   0.4 | 15.47
Comm    | 0.0084068  | 0.011392   | 0.017315   |   2.2 | 33.89
Output  | 0          | 0          | 0          |   0.0 |  0.00
Modify  | 0.00037846 | 0.0011696  | 0.0018889  |   1.4 |  3.48
Other   |            | 0.008008   |            |       | 23.82

Nlocal:            3.4 ave           5 max           1 min
Histogram: 1 0 3 0 0 7 0 5 0 4
Nghost:           3335 ave        3404 max        3246 min
Histogram: 2 1 1 1 2 2 2 5 3 1
Neighs:        2008.85 ave        2986 max         587 min
Histogram: 1 0 3 0 7 0 0 5 0 4

Total # of neighbors = 40177
Ave neighs/atom = 590.83824
Ave special neighs/atom = 4.9411765
Neighbor list builds = 19
Dangerous builds = 15
unfix           1
min_style       fire
variable        tempstp    equal $(step)
variable        tempstp    equal 80446
variable        CellMinStep equal ${tempstp}
variable        CellMinStep equal 80446
minimize        1.0e-15 1.0e-15 10000 100000
WARNING: Using 'neigh_modify every 1 delay 0 check yes' setting during minimization (src/min.cpp:187)
----------------------------------------------------------
Using INTEL Package without Coprocessor.
Compiler: Intel LLVM C++ 202202.0 / Intel(R) oneAPI DPC++/C++ Compiler 2022.2.1 (2022.2.1.20221020)
SIMD compiler directives: Enabled
Precision: mixed
----------------------------------------------------------
Generated 6 of 6 mixed pair_coeff terms from arithmetic mixing rule
  Parameters for fire: 
    dmax delaystep dtgrow dtshrink alpha0 alphashrink tmax tmin    integrator halfstepback 
     0.1        20    1.1      0.5   0.25        0.99   10 0.02 eulerimplicit          yes 
WARNING: Bond/angle/dihedral extent > half of periodic box length (src/domain.cpp:940)
Per MPI rank memory allocation (min/avg/max) = 14.87 | 15.29 | 15.59 Mbytes
   Step          Temp          E_pair         E_mol          TotEng         Press     
     80446   0              70.505703      138.13873      208.64443      21262        
     90446   1.5943977e-11  64.405362      25.38301       89.788372      54698.215    
WARNING: Bond/angle/dihedral extent > half of periodic box length (src/domain.cpp:940)
Loop time of 2.87502 on 40 procs for 10000 steps with 68 atoms

96.3% CPU use with 20 MPI tasks x 2 OpenMP threads

Minimization stats:
  Stopping criterion = max iterations
  Energy initial, next-to-last, final = 
      208.644434956382   89.7882620572915   89.7883715572491
  Force two-norm initial, final = 917.95951 0.013217477
  Force max component initial, final = 652.68578 0.003944909
  Final line search alpha, max atom move = 0 0
  Iterations, force evaluations = 10000 11675

MPI task timing breakdown:
Section |  min time  |  avg time  |  max time  |%varavg| %total
---------------------------------------------------------------
Pair    | 0.29092    | 0.66788    | 0.77648    |  12.9 | 23.23
Bond    | 0.0078978  | 0.34826    | 0.6192     |  35.6 | 12.11
Neigh   | 0          | 0          | 0          |   0.0 |  0.00
Comm    | 0.95039    | 1.3489     | 2.1519     |  26.4 | 46.92
Output  | 4.8272e-05 | 4.9318e-05 | 5.7911e-05 |   0.0 |  0.00
Modify  | 0.1468     | 0.23174    | 0.27747    |   7.0 |  8.06
Other   |            | 0.2782     |            |       |  9.68

Nlocal:            3.4 ave           5 max           1 min
Histogram: 1 0 3 0 0 7 0 5 0 4
Nghost:        3330.95 ave        3404 max        3246 min
Histogram: 2 1 1 2 3 2 1 4 3 1
Neighs:         2008.5 ave        2980 max         586 min
Histogram: 1 0 3 0 6 1 0 5 0 4

Total # of neighbors = 40170
Ave neighs/atom = 590.73529
Ave special neighs/atom = 4.9411765
Neighbor list builds = 0
Dangerous builds = 0
variable        AtomMinStep equal $(step)
variable        AtomMinStep equal 90446
variable        temppe     equal $(pe)
variable        temppe     equal 89.788371557249107013
variable        min_E      equal abs(${prev_E}-${temppe})
variable        min_E      equal abs(86.9645177931098-${temppe})
variable        min_E      equal abs(86.9645177931098-89.7883715572491)
print           "${iter},${CellMinStep},${AtomMinStep},${AtomMinStep},$(pe),${min_E}" append p1_structure.min.csv screen no
if              "${min_E} < ${min_eval}" then "jump SELF break_min"
variable        prev_E     equal ${temppe}
variable        prev_E     equal 89.7883715572491
next            iter
jump            SELF loop_min
min_style       cg
fix             1 all box/relax tri 50000 vmax 0.05
minimize        1.0e-15 1.0e-15 10000 100000
WARNING: Using 'neigh_modify every 1 delay 0 check yes' setting during minimization (src/min.cpp:187)
----------------------------------------------------------
Using INTEL Package without Coprocessor.
Compiler: Intel LLVM C++ 202202.0 / Intel(R) oneAPI DPC++/C++ Compiler 2022.2.1 (2022.2.1.20221020)
SIMD compiler directives: Enabled
Precision: mixed
----------------------------------------------------------
Generated 6 of 6 mixed pair_coeff terms from arithmetic mixing rule
WARNING: Bond/angle/dihedral extent > half of periodic box length (src/domain.cpp:940)
Per MPI rank memory allocation (min/avg/max) = 15.99 | 16.41 | 16.71 Mbytes
   Step          Temp          E_pair         E_mol          TotEng         Press          Volume    
     90446   1.5943977e-11  64.405362      22.927347      87.332708      54698.215      734.70523    
     90461   1.5943977e-11  68.953366      136.00672      204.96008      18242.893      735.17021    
WARNING: Bond/angle/dihedral extent > half of periodic box length (src/domain.cpp:940)
Loop time of 0.0460916 on 40 procs for 15 steps with 68 atoms

102.4% CPU use with 20 MPI tasks x 2 OpenMP threads

Minimization stats:
  Stopping criterion = linesearch alpha is zero
  Energy initial, next-to-last, final = 
      87.3327082811257   86.4031009459519   205.299147997238
  Force two-norm initial, final = 403.64086 1404.2154
  Force max component initial, final = 369.78883 999.04072
  Final line search alpha, max atom move = 2.4885507e-12 2.4861634e-09
  Iterations, force evaluations = 15 92

MPI task timing breakdown:
Section |  min time  |  avg time  |  max time  |%varavg| %total
---------------------------------------------------------------
Pair    | 0.0040289  | 0.0082108  | 0.0099623  |   1.4 | 17.81
Bond    | 7.6461e-05 | 0.0036972  | 0.0060125  |   3.4 |  8.02
Neigh   | 0.0054654  | 0.0060616  | 0.0064854  |   0.4 | 13.15
Comm    | 0.01165    | 0.015608   | 0.024558   |   2.8 | 33.86
Output  | 0          | 0          | 0          |   0.0 |  0.00
Modify  | 0.00053876 | 0.0017061  | 0.0027347  |   1.4 |  3.70
Other   |            | 0.01081    |            |       | 23.45

Nlocal:            3.4 ave           5 max           1 min
Histogram: 1 0 3 0 0 6 0 7 0 3
Nghost:         3310.7 ave        3407 max        3188 min
Histogram: 1 1 2 1 3 3 2 3 3 1
Neighs:        2004.65 ave        2965 max         586 min
Histogram: 1 0 3 0 6 0 0 7 0 3

Total # of neighbors = 40093
Ave neighs/atom = 589.60294
Ave special neighs/atom = 4.9411765
Neighbor list builds = 23
Dangerous builds = 17
unfix           1
min_style       fire
variable        tempstp    equal $(step)
variable        tempstp    equal 90461
variable        CellMinStep equal ${tempstp}
variable        CellMinStep equal 90461
minimize        1.0e-15 1.0e-15 10000 100000
WARNING: Using 'neigh_modify every 1 delay 0 check yes' setting during minimization (src/min.cpp:187)
----------------------------------------------------------
Using INTEL Package without Coprocessor.
Compiler: Intel LLVM C++ 202202.0 / Intel(R) oneAPI DPC++/C++ Compiler 2022.2.1 (2022.2.1.20221020)
SIMD compiler directives: Enabled
Precision: mixed
----------------------------------------------------------
Generated 6 of 6 mixed pair_coeff terms from arithmetic mixing rule
  Parameters for fire: 
    dmax delaystep dtgrow dtshrink alpha0 alphashrink tmax tmin    integrator halfstepback 
     0.1        20    1.1      0.5   0.25        0.99   10 0.02 eulerimplicit          yes 
WARNING: Bond/angle/dihedral extent > half of periodic box length (src/domain.cpp:940)
Per MPI rank memory allocation (min/avg/max) = 14.87 | 15.29 | 15.59 Mbytes
   Step          Temp          E_pair         E_mol          TotEng         Press     
     90461   0              68.953366      136.00672      204.96008      18242.893    
    100461   8.0825197e-09  63.426507      21.968003      85.394511      54107.556    
WARNING: Bond/angle/dihedral extent > half of periodic box length (src/domain.cpp:940)
Loop time of 2.68999 on 40 procs for 10000 steps with 68 atoms

97.9% CPU use with 20 MPI tasks x 2 OpenMP threads

Minimization stats:
  Stopping criterion = max iterations
  Energy initial, next-to-last, final = 
      204.960084235511   85.3944758330012   85.3945105168251
  Force two-norm initial, final = 921.46039 0.0092438681
  Force max component initial, final = 656.71864 0.0027288589
  Final line search alpha, max atom move = 0 0
  Iterations, force evaluations = 10000 10514

MPI task timing breakdown:
Section |  min time  |  avg time  |  max time  |%varavg| %total
---------------------------------------------------------------
Pair    | 0.25839    | 0.57104    | 0.6875     |  12.2 | 21.23
Bond    | 0.0080079  | 0.31915    | 0.56235    |  34.3 | 11.86
Neigh   | 0          | 0          | 0          |   0.0 |  0.00
Comm    | 0.92225    | 1.3127     | 2.0099     |  24.8 | 48.80
Output  | 0.00017275 | 0.00021621 | 0.00031142 |   0.0 |  0.01
Modify  | 0.12884    | 0.2009     | 0.25611    |   7.7 |  7.47
Other   |            | 0.286      |            |       | 10.63

Nlocal:            3.4 ave           5 max           1 min
Histogram: 1 0 3 0 0 6 0 7 0 3
Nghost:         3305.3 ave        3402 max        3183 min
Histogram: 1 1 2 1 3 3 2 3 3 1
Neighs:        2005.25 ave        2967 max         585 min
Histogram: 1 0 3 0 6 0 0 7 0 3

Total # of neighbors = 40105
Ave neighs/atom = 589.77941
Ave special neighs/atom = 4.9411765
Neighbor list builds = 0
Dangerous builds = 0
variable        AtomMinStep equal $(step)
variable        AtomMinStep equal 100461
variable        temppe     equal $(pe)
variable        temppe     equal 85.394510516825107516
variable        min_E      equal abs(${prev_E}-${temppe})
variable        min_E      equal abs(89.7883715572491-${temppe})
variable        min_E      equal abs(89.7883715572491-85.3945105168251)
print           "${iter},${CellMinStep},${AtomMinStep},${AtomMinStep},$(pe),${min_E}" append p1_structure.min.csv screen no
if              "${min_E} < ${min_eval}" then "jump SELF break_min"
variable        prev_E     equal ${temppe}
variable        prev_E     equal 85.3945105168251
next            iter
jump            SELF loop_min
min_style       cg
fix             1 all box/relax tri 50000 vmax 0.05
minimize        1.0e-15 1.0e-15 10000 100000
WARNING: Using 'neigh_modify every 1 delay 0 check yes' setting during minimization (src/min.cpp:187)
----------------------------------------------------------
Using INTEL Package without Coprocessor.
Compiler: Intel LLVM C++ 202202.0 / Intel(R) oneAPI DPC++/C++ Compiler 2022.2.1 (2022.2.1.20221020)
SIMD compiler directives: Enabled
Precision: mixed
----------------------------------------------------------
Generated 6 of 6 mixed pair_coeff terms from arithmetic mixing rule
WARNING: Bond/angle/dihedral extent > half of periodic box length (src/domain.cpp:940)
Per MPI rank memory allocation (min/avg/max) = 15.99 | 16.41 | 16.71 Mbytes
   Step          Temp          E_pair         E_mol          TotEng         Press          Volume    
    100461   8.0825197e-09  63.426507      21.968003      85.394511      54107.556      735.17021    
    100514   8.0825197e-09  61.306471      40.876957      102.18343      38989.617      735.04841    
WARNING: Bond/angle/dihedral extent > half of periodic box length (src/domain.cpp:940)
Loop time of 0.11536 on 40 procs for 53 steps with 68 atoms

98.0% CPU use with 20 MPI tasks x 2 OpenMP threads

Minimization stats:
  Stopping criterion = linesearch alpha is zero
  Energy initial, next-to-last, final = 
      85.3945106701078   82.4214368277356   102.094617499367
  Force two-norm initial, final = 341.31756 533.61993
  Force max component initial, final = 303.93666 343.53782
  Final line search alpha, max atom move = 3.7980115e-12 1.3047606e-09
  Iterations, force evaluations = 53 186

MPI task timing breakdown:
Section |  min time  |  avg time  |  max time  |%varavg| %total
---------------------------------------------------------------
Pair    | 0.0082912  | 0.015471   | 0.019657   |   2.4 | 13.41
Bond    | 0.00017232 | 0.0071151  | 0.012963   |   5.5 |  6.17
Neigh   | 0.022793   | 0.025168   | 0.026959   |   0.9 | 21.82
Comm    | 0.028885   | 0.039571   | 0.055307   |   4.1 | 34.30
Output  | 0          | 0          | 0          |   0.0 |  0.00
Modify  | 0.0011496  | 0.0033261  | 0.0055677  |   2.4 |  2.88
Other   |            | 0.02471    |            |       | 21.42

Nlocal:            3.4 ave           5 max           1 min
Histogram: 2 0 2 0 0 6 0 6 0 4
Nghost:        3278.85 ave        3366 max        3135 min
Histogram: 2 2 0 1 2 2 0 3 3 5
Neighs:        2002.95 ave        2969 max         586 min
Histogram: 2 0 2 0 5 1 0 6 0 4

Total # of neighbors = 40059
Ave neighs/atom = 589.10294
Ave special neighs/atom = 4.9411765
Neighbor list builds = 89
Dangerous builds = 71
unfix           1
min_style       fire
variable        tempstp    equal $(step)
variable        tempstp    equal 100514
variable        CellMinStep equal ${tempstp}
variable        CellMinStep equal 100514
minimize        1.0e-15 1.0e-15 10000 100000
WARNING: Using 'neigh_modify every 1 delay 0 check yes' setting during minimization (src/min.cpp:187)
----------------------------------------------------------
Using INTEL Package without Coprocessor.
Compiler: Intel LLVM C++ 202202.0 / Intel(R) oneAPI DPC++/C++ Compiler 2022.2.1 (2022.2.1.20221020)
SIMD compiler directives: Enabled
Precision: mixed
----------------------------------------------------------
Generated 6 of 6 mixed pair_coeff terms from arithmetic mixing rule
  Parameters for fire: 
    dmax delaystep dtgrow dtshrink alpha0 alphashrink tmax tmin    integrator halfstepback 
     0.1        20    1.1      0.5   0.25        0.99   10 0.02 eulerimplicit          yes 
WARNING: Bond/angle/dihedral extent > half of periodic box length (src/domain.cpp:940)
Per MPI rank memory allocation (min/avg/max) = 14.86 | 15.28 | 15.58 Mbytes
   Step          Temp          E_pair         E_mol          TotEng         Press     
    100514   0              61.306471      40.876957      102.18343      38989.617    
    110514   4.9227698e-08  60.745244      19.868819      80.614063      51906.844    
WARNING: Bond/angle/dihedral extent > half of periodic box length (src/domain.cpp:940)
Loop time of 2.66926 on 40 procs for 10000 steps with 68 atoms

96.2% CPU use with 20 MPI tasks x 2 OpenMP threads

Minimization stats:
  Stopping criterion = max iterations
  Energy initial, next-to-last, final = 
      102.183428689802   80.6141032393518    80.614063247196
  Force two-norm initial, final = 374.41853 0.013333489
  Force max component initial, final = 263.20834 0.0046642762
  Final line search alpha, max atom move = 0 0
  Iterations, force evaluations = 10000 10524

MPI task timing breakdown:
Section |  min time  |  avg time  |  max time  |%varavg| %total
---------------------------------------------------------------
Pair    | 0.25618    | 0.57834    | 0.70462    |  13.5 | 21.67
Bond    | 0.0064198  | 0.33024    | 0.56348    |  34.7 | 12.37
Neigh   | 0          | 0          | 0          |   0.0 |  0.00
Comm    | 0.878      | 1.2501     | 1.979      |  27.3 | 46.83
Output  | 5.1228e-05 | 5.2672e-05 | 5.9607e-05 |   0.0 |  0.00
Modify  | 0.12768    | 0.21259    | 0.27494    |   9.4 |  7.96
Other   |            | 0.2979     |            |       | 11.16

Nlocal:            3.4 ave           5 max           1 min
Histogram: 2 0 2 0 0 6 0 6 0 4
Nghost:        3278.85 ave        3366 max        3135 min
Histogram: 2 2 0 1 2 2 0 3 3 5
Neighs:        2002.95 ave        2969 max         586 min
Histogram: 2 0 2 0 5 1 0 6 0 4

Total # of neighbors = 40059
Ave neighs/atom = 589.10294
Ave special neighs/atom = 4.9411765
Neighbor list builds = 0
Dangerous builds = 0
variable        AtomMinStep equal $(step)
variable        AtomMinStep equal 110514
variable        temppe     equal $(pe)
variable        temppe     equal 80.614063247196000361
variable        min_E      equal abs(${prev_E}-${temppe})
variable        min_E      equal abs(85.3945105168251-${temppe})
variable        min_E      equal abs(85.3945105168251-80.614063247196)
print           "${iter},${CellMinStep},${AtomMinStep},${AtomMinStep},$(pe),${min_E}" append p1_structure.min.csv screen no
if              "${min_E} < ${min_eval}" then "jump SELF break_min"
variable        prev_E     equal ${temppe}
variable        prev_E     equal 80.614063247196
next            iter
jump            SELF loop_min
min_style       cg
fix             1 all box/relax tri 50000 vmax 0.05
minimize        1.0e-15 1.0e-15 10000 100000
WARNING: Using 'neigh_modify every 1 delay 0 check yes' setting during minimization (src/min.cpp:187)
----------------------------------------------------------
Using INTEL Package without Coprocessor.
Compiler: Intel LLVM C++ 202202.0 / Intel(R) oneAPI DPC++/C++ Compiler 2022.2.1 (2022.2.1.20221020)
SIMD compiler directives: Enabled
Precision: mixed
----------------------------------------------------------
Generated 6 of 6 mixed pair_coeff terms from arithmetic mixing rule
WARNING: Bond/angle/dihedral extent > half of periodic box length (src/domain.cpp:940)
Per MPI rank memory allocation (min/avg/max) = 15.98 | 16.41 | 16.7 Mbytes
   Step          Temp          E_pair         E_mol          TotEng         Press          Volume    
    110514   4.9227698e-08  60.745244      19.868819      80.614063      51906.844      735.04841    
    110545   4.9227698e-08  164.79602      392.72559      557.52161      107584.25      732.37903    
WARNING: Bond/angle/dihedral extent > half of periodic box length (src/domain.cpp:940)
Loop time of 0.0869825 on 40 procs for 31 steps with 68 atoms

98.6% CPU use with 20 MPI tasks x 2 OpenMP threads

Minimization stats:
  Stopping criterion = linesearch alpha is zero
  Energy initial, next-to-last, final = 
      80.6140632636542   79.8127301185798   555.575097836626
  Force two-norm initial, final = 211.23489 1882.196
  Force max component initial, final = 174.2278 1116.0871
  Final line search alpha, max atom move = 6.9251216e-13 7.7290388e-10
  Iterations, force evaluations = 31 154

MPI task timing breakdown:
Section |  min time  |  avg time  |  max time  |%varavg| %total
---------------------------------------------------------------
Pair    | 0.0047423  | 0.012864   | 0.015346   |   2.3 | 14.79
Bond    | 0.00011904 | 0.0059338  | 0.010441   |   4.6 |  6.82
Neigh   | 0.013822   | 0.01524    | 0.016574   |   0.8 | 17.52
Comm    | 0.022359   | 0.029769   | 0.045829   |   3.7 | 34.22
Output  | 0          | 0          | 0          |   0.0 |  0.00
Modify  | 0.0006195  | 0.0028111  | 0.004361   |   2.3 |  3.23
Other   |            | 0.02036    |            |       | 23.41

Nlocal:            3.4 ave           5 max           0 min
Histogram: 1 0 0 0 3 0 5 0 8 3
Nghost:        3252.85 ave        3382 max        3134 min
Histogram: 5 0 3 1 2 0 2 2 2 3
Neighs:        2007.85 ave        2957 max           0 min
Histogram: 1 0 0 2 1 3 2 5 3 3

Total # of neighbors = 40157
Ave neighs/atom = 590.54412
Ave special neighs/atom = 4.9411765
Neighbor list builds = 61
Dangerous builds = 46
unfix           1
min_style       fire
variable        tempstp    equal $(step)
variable        tempstp    equal 110545
variable        CellMinStep equal ${tempstp}
variable        CellMinStep equal 110545
minimize        1.0e-15 1.0e-15 10000 100000
WARNING: Using 'neigh_modify every 1 delay 0 check yes' setting during minimization (src/min.cpp:187)
----------------------------------------------------------
Using INTEL Package without Coprocessor.
Compiler: Intel LLVM C++ 202202.0 / Intel(R) oneAPI DPC++/C++ Compiler 2022.2.1 (2022.2.1.20221020)
SIMD compiler directives: Enabled
Precision: mixed
----------------------------------------------------------
Generated 6 of 6 mixed pair_coeff terms from arithmetic mixing rule
  Parameters for fire: 
    dmax delaystep dtgrow dtshrink alpha0 alphashrink tmax tmin    integrator halfstepback 
     0.1        20    1.1      0.5   0.25        0.99   10 0.02 eulerimplicit          yes 
WARNING: Bond/angle/dihedral extent > half of periodic box length (src/domain.cpp:940)
Per MPI rank memory allocation (min/avg/max) = 14.86 | 15.28 | 15.58 Mbytes
   Step          Temp          E_pair         E_mol          TotEng         Press     
    110545   0              164.79602      392.72559      557.52161      107584.25    
    120545   5.7845635e-08  61.857676      19.567033      81.424709      52472.132    
WARNING: Bond/angle/dihedral extent > half of periodic box length (src/domain.cpp:940)
Loop time of 2.66823 on 40 procs for 10000 steps with 68 atoms

97.5% CPU use with 20 MPI tasks x 2 OpenMP threads

Minimization stats:
  Stopping criterion = max iterations
  Energy initial, next-to-last, final = 
      557.521610683977   81.4246346697452   81.4247089746152
  Force two-norm initial, final = 1226.899 0.0094262654
  Force max component initial, final = 597.43682 0.0035039929
  Final line search alpha, max atom move = 0 0
  Iterations, force evaluations = 10000 10520

MPI task timing breakdown:
Section |  min time  |  avg time  |  max time  |%varavg| %total
---------------------------------------------------------------
Pair    | 0.2578     | 0.58311    | 0.7073     |  13.5 | 21.85
Bond    | 0.0071873  | 0.32943    | 0.56638    |  34.6 | 12.35
Neigh   | 0.00022472 | 0.00025494 | 0.0002741  |   0.0 |  0.01
Comm    | 0.89571    | 1.2471     | 1.9916     |  27.0 | 46.74
Output  | 3.5664e-05 | 3.6768e-05 | 4.3247e-05 |   0.0 |  0.00
Modify  | 0.12777    | 0.21316    | 0.27864    |  10.1 |  7.99
Other   |            | 0.2952     |            |       | 11.06

Nlocal:            3.4 ave           5 max           1 min
Histogram: 1 0 3 0 0 6 0 7 0 3
Nghost:           3256 ave        3374 max        3129 min
Histogram: 3 1 3 1 2 1 1 2 2 4
Neighs:        2009.35 ave        2965 max         592 min
Histogram: 1 0 3 0 5 1 0 7 0 3

Total # of neighbors = 40187
Ave neighs/atom = 590.98529
Ave special neighs/atom = 4.9411765
Neighbor list builds = 1
Dangerous builds = 0
variable        AtomMinStep equal $(step)
variable        AtomMinStep equal 120545
variable        temppe     equal $(pe)
variable        temppe     equal 81.424708974615214174
variable        min_E      equal abs(${prev_E}-${temppe})
variable        min_E      equal abs(80.614063247196-${temppe})
variable        min_E      equal abs(80.614063247196-81.4247089746152)
print           "${iter},${CellMinStep},${AtomMinStep},${AtomMinStep},$(pe),${min_E}" append p1_structure.min.csv screen no
if              "${min_E} < ${min_eval}" then "jump SELF break_min"
variable        prev_E     equal ${temppe}
variable        prev_E     equal 81.4247089746152
next            iter
jump            SELF loop_min
min_style       cg
fix             1 all box/relax tri 50000 vmax 0.05
minimize        1.0e-15 1.0e-15 10000 100000
WARNING: Using 'neigh_modify every 1 delay 0 check yes' setting during minimization (src/min.cpp:187)
----------------------------------------------------------
Using INTEL Package without Coprocessor.
Compiler: Intel LLVM C++ 202202.0 / Intel(R) oneAPI DPC++/C++ Compiler 2022.2.1 (2022.2.1.20221020)
SIMD compiler directives: Enabled
Precision: mixed
----------------------------------------------------------
Generated 6 of 6 mixed pair_coeff terms from arithmetic mixing rule
WARNING: Bond/angle/dihedral extent > half of periodic box length (src/domain.cpp:940)
Per MPI rank memory allocation (min/avg/max) = 15.98 | 16.41 | 16.7 Mbytes
   Step          Temp          E_pair         E_mol          TotEng         Press          Volume    
    120545   5.7845635e-08  61.857676      19.567033      81.424709      52472.132      732.37903    
    120554   5.7845635e-08  92.292701      311.92344      404.21615      10454.55       731.03255    
WARNING: Bond/angle/dihedral extent > half of periodic box length (src/domain.cpp:940)
Loop time of 0.0357374 on 40 procs for 9 steps with 68 atoms

99.5% CPU use with 20 MPI tasks x 2 OpenMP threads

Minimization stats:
  Stopping criterion = linesearch alpha is zero
  Energy initial, next-to-last, final = 
      81.4247089621262   81.2157635148293   403.234292411708
  Force two-norm initial, final = 209.17846 3179.8047
  Force max component initial, final = 185.22885 2524.6634
  Final line search alpha, max atom move = 1.6550907e-11 4.178547e-08
  Iterations, force evaluations = 9 65

MPI task timing breakdown:
[...]
      80.1271009521301   80.1270781824569   80.1271392346478
  Force two-norm initial, final = 0.011285622 0.010833519
  Force max component initial, final = 0.0034024219 0.0033924726
  Final line search alpha, max atom move = 0 0
  Iterations, force evaluations = 2046 4069

MPI task timing breakdown:
Section |  min time  |  avg time  |  max time  |%varavg| %total
---------------------------------------------------------------
Pair    | 0.087414   | 0.16737    | 0.20019    |   7.0 | 25.22
Bond    | 0.0019072  | 0.098508   | 0.16202    |  18.9 | 14.85
Neigh   | 0          | 0          | 0          |   0.0 |  0.00
Comm    | 0.19808    | 0.30048    | 0.49162    |  16.3 | 45.28
Output  | 0          | 0          | 0          |   0.0 |  0.00
Modify  | 0.044363   | 0.05727    | 0.066777   |   2.9 |  8.63
Other   |            | 0.03992    |            |       |  6.02

Nlocal:            3.4 ave           5 max           1 min
Histogram: 1 0 3 0 0 6 0 7 0 3
Nghost:        3290.45 ave        3452 max        3212 min
Histogram: 4 4 5 2 1 0 0 2 1 1
Neighs:         2000.6 ave        2954 max         594 min
Histogram: 1 0 3 0 4 2 0 7 0 3

Total # of neighbors = 40012
Ave neighs/atom = 588.41176
Ave special neighs/atom = 4.9411765
Neighbor list builds = 0
Dangerous builds = 0
variable        AtomMinStep equal $(step)
variable        AtomMinStep equal 888634
variable        temppe     equal $(pe)
variable        temppe     equal 80.127139234647813737
variable        min_E      equal abs(${prev_E}-${temppe})
variable        min_E      equal abs(80.12710095213-${temppe})
variable        min_E      equal abs(80.12710095213-80.1271392346478)
print           "${iter},${CellMinStep},${AtomMinStep},${AtomMinStep},$(pe),${min_E}" append p1_structure.min.csv screen no
if              "${min_E} < ${min_eval}" then "jump SELF break_min"
variable        prev_E     equal ${temppe}
variable        prev_E     equal 80.1271392346478
next            iter
jump            SELF loop_min
min_style       cg
fix             1 all box/relax tri 50000 vmax 0.05
minimize        1.0e-15 1.0e-15 10000 100000
----------------------------------------------------------
Using INTEL Package without Coprocessor.
Compiler: Intel LLVM C++ 202202.0 / Intel(R) oneAPI DPC++/C++ Compiler 2022.2.1 (2022.2.1.20221020)
SIMD compiler directives: Enabled
Precision: mixed
----------------------------------------------------------
Generated 6 of 6 mixed pair_coeff terms from arithmetic mixing rule
Per MPI rank memory allocation (min/avg/max) = 15.99 | 16.41 | 16.71 Mbytes
   Step          Temp          E_pair         E_mol          TotEng         Press          Volume    
    888634   1.0128149e-11  60.442154      19.684985      80.127139      50006.28       730.77815    
    888635   1.0128149e-11  60.442154      19.684985      80.127139      50006.28       730.77815    
Loop time of 0.0119682 on 40 procs for 1 steps with 68 atoms

102.1% CPU use with 20 MPI tasks x 2 OpenMP threads

Minimization stats:
  Stopping criterion = linesearch alpha is zero
  Energy initial, next-to-last, final = 
      80.1271392346478   80.1271392346478   80.1271392346478
  Force two-norm initial, final = 0.53343793 0.53343793
  Force max component initial, final = 0.3428868 0.3428868
  Final line search alpha, max atom move = 3.4766369e-08 1.1920929e-08
  Iterations, force evaluations = 1 42

MPI task timing breakdown:
Section |  min time  |  avg time  |  max time  |%varavg| %total
---------------------------------------------------------------
Pair    | 0.0017242  | 0.0025905  | 0.0031419  |   0.8 | 21.65
Bond    | 2.2829e-05 | 0.00123    | 0.0021148  |   2.2 | 10.28
Neigh   | 0.00053998 | 0.00055825 | 0.00057277 |   0.0 |  4.66
Comm    | 0.0023855  | 0.0039621  | 0.006336   |   2.0 | 33.11
Output  | 0          | 0          | 0          |   0.0 |  0.00
Modify  | 0.00023025 | 0.00054073 | 0.00074373 |   0.0 |  4.52
Other   |            | 0.003087   |            |       | 25.79

Nlocal:            3.4 ave           5 max           1 min
Histogram: 1 0 3 0 0 6 0 7 0 3
Nghost:         3295.4 ave        3457 max        3216 min
Histogram: 4 3 6 2 1 0 0 2 1 1
Neighs:         1999.8 ave        2952 max         597 min
Histogram: 1 0 3 0 4 2 0 7 0 3

Total # of neighbors = 39996
Ave neighs/atom = 588.17647
Ave special neighs/atom = 4.9411765
Neighbor list builds = 3
Dangerous builds = 3
unfix           1
min_style       fire
variable        tempstp    equal $(step)
variable        tempstp    equal 888635
variable        CellMinStep equal ${tempstp}
variable        CellMinStep equal 888635
minimize        1.0e-15 1.0e-15 10000 100000
----------------------------------------------------------
Using INTEL Package without Coprocessor.
Compiler: Intel LLVM C++ 202202.0 / Intel(R) oneAPI DPC++/C++ Compiler 2022.2.1 (2022.2.1.20221020)
SIMD compiler directives: Enabled
Precision: mixed
----------------------------------------------------------
Generated 6 of 6 mixed pair_coeff terms from arithmetic mixing rule
  Parameters for fire: 
    dmax delaystep dtgrow dtshrink alpha0 alphashrink tmax tmin    integrator halfstepback 
     0.1        20    1.1      0.5   0.25        0.99   10 0.02 eulerimplicit          yes 
Per MPI rank memory allocation (min/avg/max) = 14.87 | 15.29 | 15.59 Mbytes
   Step          Temp          E_pair         E_mol          TotEng         Press     
    888635   0              60.442154      19.684985      80.127139      50006.28     
    890684   7.7433138e-12  60.442091      19.684958      80.12705       50006.354    
Loop time of 0.661368 on 40 procs for 2049 steps with 68 atoms

97.3% CPU use with 20 MPI tasks x 2 OpenMP threads

Minimization stats:
  Stopping criterion = max iterations with v.f negative
  Energy initial, next-to-last, final = 
      80.1271392346477   80.1271917600284   80.1270497638325
  Force two-norm initial, final = 0.010833519 0.01222283
  Force max component initial, final = 0.0033924726 0.0061379552
  Final line search alpha, max atom move = 0 0
  Iterations, force evaluations = 2049 4072

MPI task timing breakdown:
Section |  min time  |  avg time  |  max time  |%varavg| %total
---------------------------------------------------------------
Pair    | 0.087455   | 0.16655    | 0.20016    |   6.9 | 25.18
Bond    | 0.0019239  | 0.097655   | 0.16254    |  18.7 | 14.77
Neigh   | 0          | 0          | 0          |   0.0 |  0.00
Comm    | 0.19433    | 0.30077    | 0.48815    |  16.1 | 45.48
Output  | 0          | 0          | 0          |   0.0 |  0.00
Modify  | 0.044494   | 0.056795   | 0.066942   |   2.9 |  8.59
Other   |            | 0.0396     |            |       |  5.99

Nlocal:            3.4 ave           5 max           1 min
Histogram: 1 0 3 0 0 6 0 7 0 3
Nghost:        3290.45 ave        3452 max        3212 min
Histogram: 4 4 5 2 1 0 0 2 1 1
Neighs:         2000.6 ave        2954 max         594 min
Histogram: 1 0 3 0 4 2 0 7 0 3

Total # of neighbors = 40012
Ave neighs/atom = 588.41176
Ave special neighs/atom = 4.9411765
Neighbor list builds = 0
Dangerous builds = 0
variable        AtomMinStep equal $(step)
variable        AtomMinStep equal 890684
variable        temppe     equal $(pe)
variable        temppe     equal 80.127049763832502549
variable        min_E      equal abs(${prev_E}-${temppe})
variable        min_E      equal abs(80.1271392346478-${temppe})
variable        min_E      equal abs(80.1271392346478-80.1270497638325)
print           "${iter},${CellMinStep},${AtomMinStep},${AtomMinStep},$(pe),${min_E}" append p1_structure.min.csv screen no
if              "${min_E} < ${min_eval}" then "jump SELF break_min"
variable        prev_E     equal ${temppe}
variable        prev_E     equal 80.1270497638325
next            iter
jump            SELF loop_min
min_style       cg
fix             1 all box/relax tri 50000 vmax 0.05
minimize        1.0e-15 1.0e-15 10000 100000
----------------------------------------------------------
Using INTEL Package without Coprocessor.
Compiler: Intel LLVM C++ 202202.0 / Intel(R) oneAPI DPC++/C++ Compiler 2022.2.1 (2022.2.1.20221020)
SIMD compiler directives: Enabled
Precision: mixed
----------------------------------------------------------
Generated 6 of 6 mixed pair_coeff terms from arithmetic mixing rule
Per MPI rank memory allocation (min/avg/max) = 15.99 | 16.41 | 16.71 Mbytes
   Step          Temp          E_pair         E_mol          TotEng         Press          Volume    
    890684   7.7433138e-12  60.442091      19.684958      80.12705       50006.354      730.77815    
    890685   7.7433138e-12  60.442091      19.684958      80.12705       50006.354      730.77815    
Loop time of 0.0120191 on 40 procs for 1 steps with 68 atoms

102.6% CPU use with 20 MPI tasks x 2 OpenMP threads

Minimization stats:
  Stopping criterion = linesearch alpha is zero
  Energy initial, next-to-last, final = 
      80.1270497638324   80.1270497638324   80.1270497638324
  Force two-norm initial, final = 0.52367104 0.52367104
  Force max component initial, final = 0.34192089 0.34192089
  Final line search alpha, max atom move = 3.4864582e-08 1.1920929e-08
  Iterations, force evaluations = 1 42

MPI task timing breakdown:
Section |  min time  |  avg time  |  max time  |%varavg| %total
---------------------------------------------------------------
Pair    | 0.0017033  | 0.0025514  | 0.0031164  |   0.8 | 21.23
Bond    | 3.0408e-05 | 0.001194   | 0.0021379  |   2.1 |  9.93
Neigh   | 0.00051695 | 0.00054319 | 0.00055761 |   0.0 |  4.52
Comm    | 0.0024229  | 0.0040803  | 0.00638    |   2.0 | 33.95
Output  | 0          | 0          | 0          |   0.0 |  0.00
Modify  | 0.00023073 | 0.00052876 | 0.00075845 |   0.0 |  4.40
Other   |            | 0.003122   |            |       | 25.97

Nlocal:            3.4 ave           5 max           1 min
Histogram: 1 0 3 0 0 6 0 7 0 3
Nghost:         3295.4 ave        3457 max        3216 min
Histogram: 4 3 6 2 1 0 0 2 1 1
Neighs:         2000.1 ave        2952 max         597 min
Histogram: 1 0 3 0 4 2 0 7 0 3

Total # of neighbors = 40002
Ave neighs/atom = 588.26471
Ave special neighs/atom = 4.9411765
Neighbor list builds = 3
Dangerous builds = 3
unfix           1
min_style       fire
variable        tempstp    equal $(step)
variable        tempstp    equal 890685
variable        CellMinStep equal ${tempstp}
variable        CellMinStep equal 890685
minimize        1.0e-15 1.0e-15 10000 100000
----------------------------------------------------------
Using INTEL Package without Coprocessor.
Compiler: Intel LLVM C++ 202202.0 / Intel(R) oneAPI DPC++/C++ Compiler 2022.2.1 (2022.2.1.20221020)
SIMD compiler directives: Enabled
Precision: mixed
----------------------------------------------------------
Generated 6 of 6 mixed pair_coeff terms from arithmetic mixing rule
  Parameters for fire: 
    dmax delaystep dtgrow dtshrink alpha0 alphashrink tmax tmin    integrator halfstepback 
     0.1        20    1.1      0.5   0.25        0.99   10 0.02 eulerimplicit          yes 
Per MPI rank memory allocation (min/avg/max) = 14.87 | 15.29 | 15.59 Mbytes
   Step          Temp          E_pair         E_mol          TotEng         Press     
    890685   0              60.442091      19.684958      80.12705       50006.354    
    892770   3.1966306e-12  60.442148      19.684999      80.127147      50006.62     
Loop time of 0.667087 on 40 procs for 2085 steps with 68 atoms

98.8% CPU use with 20 MPI tasks x 2 OpenMP threads

Minimization stats:
  Stopping criterion = max iterations with v.f negative
  Energy initial, next-to-last, final = 
      80.1270497638323   80.1270657497936   80.1271474831056
  Force two-norm initial, final = 0.01222283 0.013160502
  Force max component initial, final = 0.0061379552 0.0061635186
  Final line search alpha, max atom move = 0 0
  Iterations, force evaluations = 2085 4111

MPI task timing breakdown:
Section |  min time  |  avg time  |  max time  |%varavg| %total
---------------------------------------------------------------
Pair    | 0.088057   | 0.16768    | 0.20145    |   6.9 | 25.14
Bond    | 0.0019501  | 0.097879   | 0.16357    |  18.7 | 14.67
Neigh   | 0          | 0          | 0          |   0.0 |  0.00
Comm    | 0.19617    | 0.30374    | 0.49167    |  16.0 | 45.53
Output  | 0          | 0          | 0          |   0.0 |  0.00
Modify  | 0.04476    | 0.057432   | 0.067656   |   3.0 |  8.61
Other   |            | 0.04035    |            |       |  6.05

Nlocal:            3.4 ave           5 max           1 min
Histogram: 1 0 3 0 0 6 0 7 0 3
Nghost:        3290.45 ave        3452 max        3212 min
Histogram: 4 4 5 2 1 0 0 2 1 1
Neighs:         2000.6 ave        2954 max         594 min
Histogram: 1 0 3 0 4 2 0 7 0 3

Total # of neighbors = 40012
Ave neighs/atom = 588.41176
Ave special neighs/atom = 4.9411765
Neighbor list builds = 0
Dangerous builds = 0
variable        AtomMinStep equal $(step)
variable        AtomMinStep equal 892770
variable        temppe     equal $(pe)
variable        temppe     equal 80.127147483105616743
variable        min_E      equal abs(${prev_E}-${temppe})
variable        min_E      equal abs(80.1270497638325-${temppe})
variable        min_E      equal abs(80.1270497638325-80.1271474831056)
print           "${iter},${CellMinStep},${AtomMinStep},${AtomMinStep},$(pe),${min_E}" append p1_structure.min.csv screen no
if              "${min_E} < ${min_eval}" then "jump SELF break_min"
variable        prev_E     equal ${temppe}
variable        prev_E     equal 80.1271474831056
next            iter
jump            SELF loop_min
min_style       cg
fix             1 all box/relax tri 50000 vmax 0.05
minimize        1.0e-15 1.0e-15 10000 100000
----------------------------------------------------------
Using INTEL Package without Coprocessor.
Compiler: Intel LLVM C++ 202202.0 / Intel(R) oneAPI DPC++/C++ Compiler 2022.2.1 (2022.2.1.20221020)
SIMD compiler directives: Enabled
Precision: mixed
----------------------------------------------------------
Generated 6 of 6 mixed pair_coeff terms from arithmetic mixing rule
Per MPI rank memory allocation (min/avg/max) = 15.99 | 16.41 | 16.71 Mbytes
   Step          Temp          E_pair         E_mol          TotEng         Press          Volume    
    892770   3.1966306e-12  60.442148      19.684999      80.127147      50006.62       730.77815    
    892771   3.1966306e-12  60.442148      19.684999      80.127147      50006.62       730.77815    
Loop time of 0.0119791 on 40 procs for 1 steps with 68 atoms

96.5% CPU use with 20 MPI tasks x 2 OpenMP threads

Minimization stats:
  Stopping criterion = linesearch alpha is zero
  Energy initial, next-to-last, final = 
      80.1271474831056   80.1271474831056   80.1271474831056
  Force two-norm initial, final = 0.54375195 0.54375195
  Force max component initial, final = 0.34984376 0.34984376
  Final line search alpha, max atom move = 3.4075008e-08 1.1920929e-08
  Iterations, force evaluations = 1 42

MPI task timing breakdown:
Section |  min time  |  avg time  |  max time  |%varavg| %total
---------------------------------------------------------------
Pair    | 0.0017335  | 0.002563   | 0.0031504  |   0.8 | 21.40
Bond    | 2.2061e-05 | 0.0011908  | 0.0021232  |   2.1 |  9.94
Neigh   | 0.00050811 | 0.00053307 | 0.00054637 |   0.0 |  4.45
Comm    | 0.0023987  | 0.0040753  | 0.0063658  |   2.0 | 34.02
Output  | 0          | 0          | 0          |   0.0 |  0.00
Modify  | 0.00023009 | 0.00053    | 0.00073674 |   0.0 |  4.42
Other   |            | 0.003087   |            |       | 25.77

Nlocal:            3.4 ave           5 max           1 min
Histogram: 1 0 3 0 0 6 0 7 0 3
Nghost:         3295.4 ave        3457 max        3216 min
Histogram: 4 3 6 2 1 0 0 2 1 1
Neighs:         1999.6 ave        2952 max         597 min
Histogram: 1 0 3 0 4 2 0 7 0 3

Total # of neighbors = 39992
Ave neighs/atom = 588.11765
Ave special neighs/atom = 4.9411765
Neighbor list builds = 3
Dangerous builds = 3
unfix           1
min_style       fire
variable        tempstp    equal $(step)
variable        tempstp    equal 892771
variable        CellMinStep equal ${tempstp}
variable        CellMinStep equal 892771
minimize        1.0e-15 1.0e-15 10000 100000
----------------------------------------------------------
Using INTEL Package without Coprocessor.
Compiler: Intel LLVM C++ 202202.0 / Intel(R) oneAPI DPC++/C++ Compiler 2022.2.1 (2022.2.1.20221020)
SIMD compiler directives: Enabled
Precision: mixed
----------------------------------------------------------
Generated 6 of 6 mixed pair_coeff terms from arithmetic mixing rule
  Parameters for fire: 
    dmax delaystep dtgrow dtshrink alpha0 alphashrink tmax tmin    integrator halfstepback 
     0.1        20    1.1      0.5   0.25        0.99   10 0.02 eulerimplicit          yes 
Per MPI rank memory allocation (min/avg/max) = 14.87 | 15.29 | 15.59 Mbytes
   Step          Temp          E_pair         E_mol          TotEng         Press     
    892771   0              60.442148      19.684999      80.127147      50006.62     
    894834   3.1959277e-12  60.442133      19.685015      80.127147      50006.342    
Loop time of 0.663908 on 40 procs for 2063 steps with 68 atoms

98.7% CPU use with 20 MPI tasks x 2 OpenMP threads

Minimization stats:
  Stopping criterion = max iterations with v.f negative
  Energy initial, next-to-last, final = 
      80.1271474831056   80.1271984640792   80.1271474589252
  Force two-norm initial, final = 0.013160502 0.012102331
  Force max component initial, final = 0.0061635186 0.0045527718
  Final line search alpha, max atom move = 0 0
  Iterations, force evaluations = 2063 4088

MPI task timing breakdown:
Section |  min time  |  avg time  |  max time  |%varavg| %total
---------------------------------------------------------------
Pair    | 0.089479   | 0.16646    | 0.20073    |   6.7 | 25.07
Bond    | 0.0020855  | 0.09718    | 0.16329    |  18.6 | 14.64
Neigh   | 0          | 0          | 0          |   0.0 |  0.00
Comm    | 0.19502    | 0.30328    | 0.48583    |  15.7 | 45.68
Output  | 0          | 0          | 0          |   0.0 |  0.00
Modify  | 0.046485   | 0.056988   | 0.067145   |   2.8 |  8.58
Other   |            | 0.03999    |            |       |  6.02

Nlocal:            3.4 ave           5 max           1 min
Histogram: 1 0 3 0 0 6 0 7 0 3
Nghost:        3290.45 ave        3452 max        3212 min
Histogram: 4 4 5 2 1 0 0 2 1 1
Neighs:         2000.6 ave        2954 max         594 min
Histogram: 1 0 3 0 4 2 0 7 0 3

Total # of neighbors = 40012
Ave neighs/atom = 588.41176
Ave special neighs/atom = 4.9411765
Neighbor list builds = 0
Dangerous builds = 0
variable        AtomMinStep equal $(step)
variable        AtomMinStep equal 894834
variable        temppe     equal $(pe)
variable        temppe     equal 80.127147458925236378
variable        min_E      equal abs(${prev_E}-${temppe})
variable        min_E      equal abs(80.1271474831056-${temppe})
variable        min_E      equal abs(80.1271474831056-80.1271474589252)
print           "${iter},${CellMinStep},${AtomMinStep},${AtomMinStep},$(pe),${min_E}" append p1_structure.min.csv screen no
if              "${min_E} < ${min_eval}" then "jump SELF break_min"
jump SELF break_min
undump   structure_xyzmov

print " "
 
print "----------------"
----------------
print "Cell Data"
Cell Data
print "----------------"
----------------
print " "
 

variable x0 equal xlo
variable x1 equal xhi
variable y0 equal ylo
variable y1 equal yhi
variable z0 equal zlo
variable z1 equal zhi
variable XY equal xy
variable XZ equal xz
variable YZ equal yz

print "x0 = ${x0}"
x0 = -0.101522252989395
print "x1 = ${x1}"
x1 = 7.41880725298939
print "y0 = ${y0}"
y0 = 3.23235814239571
print "y1 = ${y1}"
y1 = 32.0293018576042
print "z0 = ${z0}"
z0 = 1.15074025437117
print "z1 = ${z1}"
z1 = 4.52518474562883
print "XY = ${XY}"
XY = 8.66373149172807
print "XZ = ${XZ}"
XZ = -0.443084444328431
print "YZ = ${YZ}"
YZ = 0.311566414236044
Total wall time: 0:04:36
