68
 Atoms. Timestep: 0
C 3.86085 11.0695 3.60052
C 2.47358 12.0987 5.2898
C 3.5972 12.1329 4.46402
C 3.00102 9.97202 3.56298
C 8.93087 11.0011 5.25193
C 1.8772 9.93784 4.38849
C 3.07606 6.38985 3.82054
C 1.68878 7.41902 5.50982
C 2.81241 7.45321 4.68405
C 2.21623 5.29233 3.78301
C 8.14608 6.32146 5.47195
C 1.0924 5.25816 4.60852
C 3.71884 0.449967 4.71398
C 3.02569 3.19325 0.727334
C 3.45519 1.51333 5.57748
C 2.85901 -0.647546 4.67644
C 2.1657 2.09568 0.689464
C 1.73518 -0.681725 5.50195
C 3.81818 18.449 1.09886
C 9.74818 19.4782 2.78814
C 10.8718 19.5124 1.96236
C 10.2756 17.3515 1.06132
C 8.88819 18.3806 2.75027
C 9.1518 17.3173 1.88683
H 4.26149 12.9932 4.5011
H 8.74215 12.6635 0.209546
H 3.4767 8.31348 4.72113
H 7.95735 7.98385 0.429571
H 4.11948 2.3736 5.61456
H 1.28285 2.04397 1.32301
H 4.21881 20.3726 1.99944
H 8.00534 18.3289 3.38381
N 5.02636 11.1606 2.77903
N 10.2166 14.8948 0.493427
N 8.31134 8.86964 4.38756
N 7.61899 8.03264 4.38676
N 4.24156 6.48097 2.99906
N 2.11454 10.2151 0.713452
N 7.52654 4.18996 4.60759
N 6.83419 3.35296 4.60678
N 4.88435 0.541086 3.89249
N 2.75732 4.27524 1.60689
N 8.14732 33.5117 5.50102
N 7.45497 32.6747 5.50022
N 4.98368 18.5401 0.277374
N 9.47981 20.5602 3.66769
N 8.26866 16.2491 1.8859
N 7.57631 15.4121 1.8851
O 3.23634 8.98713 2.77005
O 5.74692 12.1783 2.8721
O 5.28348 10.219 1.99726
O 9.20081 14.8435 1.22816
O 3.68569 15.8725 0.51228
O 2.45154 4.30745 2.99007
O 4.96212 7.49866 3.09213
O 4.49869 5.53934 2.21729
O 8.41601 10.1638 1.44819
O 2.9009 11.1928 0.732306
O 10.3896 33.6292 3.88351
O 5.60491 1.55878 3.98556
O 5.14147 -0.400539 3.11072
O 1.74151 4.22391 2.34162
O 3.54368 5.25292 1.62574
O 10.5109 16.3666 0.268387
O 5.70424 19.5578 0.370445
O 4.54668 15.8844 5.17153
O 8.46401 20.5088 4.40243
O 10.2662 21.5379 3.68655
68
 Atoms. Timestep: 44
C 4.34645 11.8432 3.68467
C 3.26251 12.8645 5.54279
C 4.25963 12.8453 4.61006
C 3.36123 10.9024 3.64764
C 10.9192 11.9692 5.49506
C 2.30868 10.9587 4.56029
C 3.91889 7.56274 3.99701
C 2.81417 8.51574 6.01274
C 3.81639 8.51432 5.02477
C 3.02008 6.55505 4.04262
C 10.552 7.53111 5.94625
C 1.92725 6.59759 4.91873
C 5.45152 2.08612 4.98878
C 2.86794 4.24009 0.382294
C 5.34901 3.0997 5.96682
C 4.50319 1.10013 4.97091
C 1.95394 3.23586 0.358602
C 3.4779 1.12386 5.90701
C 2.7208 18.5214 0.859368
C 10.353 19.5773 2.79265
C 11.3758 19.5183 1.85088
C 10.3345 17.6593 0.778711
C 9.42879 18.5786 2.78506
C 9.40879 17.5731 1.86869
H 4.9698 13.6319 4.68914
H 8.7502 13.0422 -0.199576
H 4.5114 9.31708 5.01755
H 8.28015 8.71659 0.082992
H 6.0698 3.89951 6.0089
H 1.15912 3.25841 1.07381
H 3.39286 20.2968 1.86915
H 8.61507 18.5825 3.48029
N 5.42075 11.8556 2.75537
N 1.9724 14.8275 0.164039
N 10.1171 9.89799 4.39503
N 9.0708 9.11478 4.63764
N 5.0285 7.58857 3.04156
N 1.27307 10.7559 0.441433
N 9.79014 5.50224 4.69495
N 8.73702 4.77508 5.03779
N 6.50985 2.07868 4.02928
N 2.59973 5.3528 1.21517
N 8.40494 32.7325 5.75504
N 7.36696 31.9425 5.99348
N 3.80977 18.5062 -0.100823
N 10.2627 20.6263 3.78175
N 8.17352 16.8718 2.05511
N 7.63605 15.7178 1.65589
O 3.40389 9.92678 2.75498
O 6.28218 12.8046 2.81046
O 5.55712 10.9495 1.82688
O 9.76907 14.8264 1.09758
O 3.08461 15.4081 0.402703
O 3.40578 5.3718 3.65226
O 5.8321 8.58121 3.13036
O 5.41237 6.56982 2.31879
O 8.98003 10.8235 1.29272
O 2.2083 11.6442 0.516714
O 10.3412 32.7952 4.08068
O 7.35449 3.01786 4.05179
O 6.65808 1.16956 3.10404
O 1.51309 5.40599 1.93206
O 3.3295 6.41235 1.09904
O 11.6688 15.0931 6.09028
O 4.69364 19.4373 -0.055024
O 5.36521 16.4419 5.48795
O 9.29145 20.6486 4.67275
O 11.1457 21.5625 3.80686
68
 Atoms. Timestep: 10070
C 5.2158 13.1089 3.72727
C 3.51086 14.2057 5.00856
C 4.81078 14.1423 4.55636
C 4.2968 12.1377 3.36151
C 11.0003 13.2558 4.58026
C 2.98694 12.2108 3.77641
C 4.77832 8.80211 4.51009
C 2.50722 10.2916 -0.101111
C 4.7474 9.97615 5.21196
C 3.6071 8.02156 4.46976
C 2.46312 9.61908 5.78978
C 2.46663 8.43013 5.10829
C 5.15289 5.08599 5.47286
C 3.00086 6.59737 0.945792
C 4.09851 6.16828 0.233165
C 3.99612 4.32248 5.51705
C 1.85028 5.83324 0.96067
C 1.80185 4.64625 0.275187
C 11.594 18.6992 0.209552
C 10.846 19.5757 2.32945
C 11.8513 19.3451 1.40764
C 10.2916 18.2787 -0.0875488
C 9.56743 19.1401 2.0423
C 9.27477 18.4995 0.849449
H 5.51806 14.8761 4.8599
H 10.0093 13.2623 4.97162
H 5.63314 10.5804 5.23258
H 8.89076 9.83886 0.328371
H 4.96848 6.78169 0.16485
H 0.999873 6.17394 1.50037
H 4.43707 19.6664 1.63033
H 8.77338 19.2947 2.73999
N 6.559 13.0675 3.27235
N 10.4365 15.1038 -0.0245051
N 10.5141 11.1626 3.46127
N 9.24435 11.1676 3.88157
N 5.96946 8.41435 3.83079
N 2.48606 11.5083 0.600915
N 9.73834 7.61392 5.0803
N 8.62165 7.97975 5.70951
N 6.27378 4.68952 4.69688
N 3.00178 7.86341 1.56022
N 0.653213 3.84697 0.321127
N 8.01245 4.21238 1.05513
N 5.3543 18.5941 5.25621
N 11.1296 20.2561 3.55228
N 7.94073 18.1071 0.63616
N 8.65348 17.5617 5.49358
O 4.67386 11.1112 2.6541
O 7.48418 13.6654 3.95528
O 6.85146 12.51 2.13049
O 9.18613 15.2748 0.258977
O 2.92093 15.8093 0.606297
O 3.60088 6.86736 3.8748
O 6.85511 9.31191 3.48365
O 6.18247 7.17945 3.54926
O 9.78912 11.9511 1.09642
O 3.55621 12.2457 0.656035
O 11.4365 31.9209 4.90676
O 7.44899 5.14263 4.99721
O 6.12994 3.95949 3.62778
O 1.94412 8.2943 2.16545
O 4.09872 8.56825 1.58846
O 11.146 17.7892 4.72387
O 6.37488 19.4081 5.26834
O 5.36566 17.5746 4.4655
O 10.1773 20.5139 4.3995
O 12.3401 20.6194 3.84119
68
 Atoms. Timestep: 20114
C 5.47614 15.4697 3.42341
C 3.92564 16.1698 5.1594
C 5.19108 16.2114 4.55585
C 4.55347 14.5912 2.89332
C 10.83 15.3615 4.58904
C 3.2785 14.5583 3.45492
C 4.95923 9.26113 4.22794
C 3.21208 10.7592 4.97622
C 4.52833 10.5331 4.56696
C 4.09155 8.19554 4.35867
C 2.31853 9.73162 4.93991
C 2.75268 8.44701 4.67154
C 4.46757 4.39664 1.13435
C 2.71704 6.2565 1.87223
C 3.92244 5.75449 1.37776
C 11.226 30.2982 1.45788
C 1.70391 5.3971 2.14727
C 10.0343 30.8188 1.97088
C 12.1627 20.0862 5.09259
C 10.7075 20.5784 1.5348
C 11.7243 20.2658 0.626965
C 10.9082 19.4844 4.94847
C 9.48102 19.9459 1.40426
C 9.2524 19.0577 0.361601
H 5.90209 16.8899 4.99402
H 9.87663 15.2824 5.06747
H 5.21962 11.3443 4.54228
H 9.22104 9.88137 5.40022
H 4.69448 6.43633 1.07393
H 0.758715 5.79445 2.50625
H 4.80329 20.7267 0.738424
H 8.70349 20.1532 2.13788
N 6.73675 15.614 2.79195
N 10.8509 16.2391 0.819168
N 10.2099 13.6652 2.89781
N 8.99229 13.5403 3.42158
N 6.27307 9.07621 3.73287
N 2.84131 12.0056 5.55196
N 1.88762 7.36306 4.8364
N 8.49307 7.50941 5.20466
N 13.4858 30.731 0.571794
N 2.51509 7.66333 1.97929
N 9.01562 29.9334 2.3372
N 15.771 30.3577 2.93655
N 5.36215 19.8372 4.14652
N 10.9148 21.5416 2.59273
N 7.96315 18.4936 0.296661
N 8.24302 18.403 4.82018
O 4.8191 13.8199 1.84848
O 7.74809 15.9899 3.51473
O 6.88477 15.4833 1.49363
O 9.67959 16.2061 1.36966
O 3.86254 17.0224 1.34716
O 4.49959 6.98465 4.04908
O 7.19667 9.91738 4.04602
O 6.52138 8.15717 2.83664
O 8.85564 11.5193 0.394246
O 3.11851 12.1256 0.295184
O 11.3988 29.0008 1.35841
O 6.36699 4.68611 0.634777
O 14.1795 30.3752 5.39714
O 1.34445 8.17128 2.18554
O 3.48646 8.45974 1.69479
O 10.6723 18.6615 3.93947
O 6.35797 20.6441 4.05776
O 5.3439 18.8356 3.30858
O 9.96368 21.8577 3.42665
O 12.0424 22.1536 2.70688
68
 Atoms. Timestep: 30291
C 4.97693 16.0147 3.51751
C 3.27484 17.1175 4.85425
C 4.5397 17.0944 4.2817
C 4.10408 14.9422 3.2991
C 9.82449 16.0525 4.62858
C 2.79152 14.9974 3.79669
C 4.04939 10.0752 3.55539
C 2.28711 11.1094 4.86618
C 3.56666 11.1342 4.32265
C 3.20442 8.98241 3.2947
C 1.4613 10.0207 4.6124
C 1.88337 8.98926 3.77148
C 11.5015 29.3533 1.6814
C 9.51552 30.75 2.03544
C 10.8404 30.5943 1.59067
C 10.8091 28.2509 2.23761
C 8.84158 29.6339 2.5585
C 9.47668 28.3844 2.65046
C 10.9787 21.676 4.30692
C 9.84873 22.2991 1.41652
C 11.0176 21.8632 0.77853
C 9.79843 20.9043 4.22158
C 8.70287 21.5055 1.34852
C 8.63423 21.3073 4.9162
H 5.19554 17.9303 4.43353
H 8.9293 15.0492 0.829136
H 4.19513 11.9947 4.4924
H 7.97663 8.97993 0.803465
H 4.058 4.31737 1.17153
H 7.82603 29.7436 2.90809
H 11.9176 22.4491 0.854227
H 7.81394 21.775 1.89947
N 6.29127 16.0598 2.94642
N 10.3835 17.2168 1.42028
N 9.27377 13.9995 3.43849
N 8.01494 13.9957 3.90389
N 5.38258 10.1591 3.03448
N 1.92509 11.1833 1.43506
N 0.996834 7.94423 3.41726
N 7.19298 7.82759 3.97789
N 12.8618 29.2376 1.20682
N 1.56781 4.9089 1.96575
N 8.79799 27.2453 3.16581
N 7.50507 27.2836 3.52329
N 4.77133 21.345 3.57977
N 9.84049 23.5256 2.1656
N 7.44155 20.5479 4.95002
N 7.30357 19.4078 4.26767
O 4.50836 13.904 2.60665
O 7.17529 16.847 3.45756
O 6.62026 15.3566 1.9048
O 9.17327 17.3335 1.86353
O 3.83059 18.1352 1.71803
O 3.64557 7.95636 2.60496
O 6.21027 11.0108 3.54844
O 5.74921 9.48779 1.98336
O 8.10353 11.2882 1.80554
O 2.74556 12.1232 1.75913
O 11.4119 27.0928 2.40799
O 13.5669 30.3012 0.960139
O 13.3709 28.0809 0.892502
O 0.365361 5.0953 2.43332
O 2.21454 5.93391 1.50211
O 9.77752 19.8267 3.47528
O 5.66616 22.2569 3.33478
O 4.96204 20.1613 3.08367
O 8.77188 23.9094 2.80785
O 10.9126 24.2517 2.25005
68
 Atoms. Timestep: 40316
C 5.29843 15.9368 3.14744
C 3.75017 17.3706 4.35898
C 4.98862 17.1511 3.76521
C 4.33655 14.9057 3.16176
C 10.1003 16.3518 4.3292
C 3.08839 15.1199 3.73868
C 2.49818 9.82814 4.28834
C 8.12149 9.79827 1.38849
C 2.15864 9.85419 1.01167
C 1.7452 8.65844 4.06612
C 7.39896 8.63207 1.16543
C 7.73066 8.56765 4.50532
C 12.3855 29.0157 1.916
C 10.4967 30.5183 2.28688
C 11.7906 30.2781 1.81489
C 11.6586 27.9729 2.51704
C 9.7693 29.4507 2.81735
C 10.3361 28.1794 2.91168
C 10.8464 22.453 3.6606
C 9.24926 22.8256 0.874691
C 10.5496 23.6448 4.32298
C 9.83695 21.476 3.55902
C 8.29863 22.9169 4.73403
C 8.56396 21.7069 4.1141
H 5.71666 17.9394 3.77833
H 9.13923 16.5058 4.78435
H 2.71513 10.7556 1.19869
H 6.37771 8.57522 1.48514
H 12.3339 31.0755 1.34959
H 8.7664 29.6115 3.17035
H 11.3112 24.3989 4.41187
H 7.58662 22.0471 1.19336
N 6.57057 15.7944 2.48984
N 3.742 17.5887 1.04649
N 9.44861 14.0756 3.70897
N 8.2162 14.2267 4.20155
N 3.83988 9.99012 3.7924
N 7.49734 10.9377 1.98321
N 7.01825 7.36521 4.28923
N 5.78167 7.18419 4.76902
N 13.707 28.8037 1.38309
N 2.64704 4.6192 2.21996
N 9.58572 27.0843 3.3815
N 8.25114 27.1135 3.44922
N 4.84858 22.2866 3.06826
N 9.26649 24.1004 1.54162
N 7.52021 20.7573 4.08742
N 7.63065 19.5724 3.4627
O 4.57625 13.7397 2.6057
O 7.41648 16.7742 2.4614
O 6.88777 14.6963 1.8724
O 9.87844 17.8279 1.55535
O 4.66444 18.4952 1.16111
O 2.25902 7.63824 3.42585
O 4.45074 11.1221 3.92117
O 4.44103 9.0448 3.13148
O 6.24505 11.1934 1.81499
O 8.20625 11.8437 2.57311
O 12.2128 26.7984 2.71984
O 7.16284 29.8152 1.09355
O 6.80181 27.6112 1.05733
O 1.41027 4.82912 2.55793
O 3.37691 5.63333 1.87502
O 10.0687 20.3659 2.90434
O 5.67666 23.283 3.02107
O 5.21529 21.1598 2.53212
O 8.06024 24.4377 1.87507
O 10.2317 24.9249 1.79883
68
 Atoms. Timestep: 50349
C 6.15845 16.064 3.59667
C 4.36608 17.4811 4.46486
C 5.66605 17.325 3.97243
C 5.32763 14.9331 3.77222
C 3.57768 16.3429 4.65637
C 4.03707 15.0774 4.28645
C 2.84559 8.68936 1.23265
C 8.18605 9.80692 2.17472
C 2.24865 9.81281 1.81605
C 2.08262 7.50994 1.11513
C 7.46092 8.61847 2.08539
C 8.05928 7.4615 1.58557
C 12.1772 29.0627 1.46794
C 10.5048 30.5373 2.46284
C 11.7492 30.3379 1.85905
C 11.3199 27.9599 1.69273
C 9.64991 29.4436 2.62831
C 10.0485 28.1636 2.23902
C 10.2004 22.6358 2.93757
C 8.23079 23.7343 3.86365
C 9.58986 23.7446 3.53352
C 9.4403 21.4576 2.76883
C 7.48682 22.5773 3.65495
C 8.06967 21.4459 3.1007
H 6.29533 18.1895 3.88081
H 10.2245 15.3918 1.29563
H 2.82811 10.7121 1.94088
H 6.43432 8.59614 2.41417
H 12.3866 31.1859 1.67664
H 8.68746 29.5784 3.09712
H 10.1605 24.6519 3.67837
H 6.44725 22.5475 3.93698
N 7.49036 15.9531 3.04951
N 4.16265 17.7356 0.93593
N 3.20207 13.9411 4.40345
N 9.53923 13.0034 0.95707
N 3.85161 9.84662 4.50858
N 7.53694 11.0121 2.59135
N 7.35326 6.23695 1.55022
N 6.31899 6.0133 2.374
N 13.1486 29.9674 4.67446
N 2.79677 4.62649 2.93482
N 9.18156 27.0636 2.39724
N 7.86635 27.2249 2.58804
N 11.5438 22.7696 2.42621
N 7.60832 24.9133 4.38159
N 7.22912 20.3328 2.86202
N 7.56228 19.3498 2.01476
O 5.75239 13.73 3.46975
O 8.33826 16.9282 3.16538
O 7.85751 14.9059 2.37688
O 10.1741 17.8931 1.09923
O 4.58966 19.8442 4.71099
O 2.2479 7.50095 4.34265
O 4.34383 11.0148 4.22011
O 4.55435 8.79221 4.22026
O 6.30062 11.228 2.26962
O 8.208 11.9689 3.15016
O 11.6878 26.7365 1.37978
O 6.7231 30.9354 4.72465
O 13.4808 28.881 4.04852
O 1.62034 4.83186 3.44388
O 3.66866 5.58843 2.97908
O 10.0001 20.3805 2.28024
O 12.0695 23.9501 2.29698
O 4.90619 21.7559 1.94408
O 6.35236 25.1535 4.17204
O 8.66351 24.7964 1.09636
68
 Atoms. Timestep: 60403
C 6.06871 16.0487 3.59792
C 4.21755 17.4262 4.40724
C 5.54033 17.2954 3.9721
C 5.25718 14.8977 3.74651
C 3.45311 16.2682 4.58612
C 3.95287 15.0119 4.23632
C 2.75271 8.55108 1.29914
C 8.16494 9.73071 2.17346
C 2.15742 9.7147 1.80388
C 1.98354 7.36598 1.26131
C 7.44672 8.53505 2.19371
C 8.04908 7.3474 1.78677
C 13.214 29.1555 1.57145
C 11.365 30.461 2.47051
C 12.6396 30.3884 1.90861
C 12.455 27.9743 1.74926
C 10.6383 29.2808 2.65119
C 11.1508 28.0486 2.24822
C 9.71703 22.6666 2.86855
C 7.70753 23.7498 3.72352
C 9.0757 23.7703 3.43528
C 8.98382 21.4674 2.71511
C 6.98555 22.5756 3.51643
C 7.60028 21.4421 3.00221
H 6.16917 18.1657 3.94435
H 10.1384 15.3745 1.3155
H 2.74234 10.6197 1.86377
H 6.43308 8.51981 2.56658
H 13.1871 31.2966 1.71785
H 9.67871 29.3127 3.13363
H 9.64312 24.6705 3.60235
H 5.93903 22.5326 3.7747
N 7.41566 15.9774 3.07993
N 3.64337 18.7254 4.64993
N 3.14338 13.8555 4.35075
N 9.52286 12.9791 1.00145
N 3.79397 9.57656 4.48864
N 7.5182 10.9553 2.52845
N 7.39701 6.11452 1.99373
N 6.73131 5.88957 3.13128
N 7.20479 29.1326 1.08207
N 10.8126 31.7241 2.87129
N 10.3515 26.8831 2.32248
N 9.04186 26.9626 2.59742
N 11.0453 22.8413 2.32948
N 7.04208 24.9376 4.16618
N 6.77125 20.3249 2.72924
N 7.1676 19.3043 1.95904
O 5.71037 13.7052 3.43844
O 8.21299 17.0003 3.1642
O 7.83827 14.9275 2.44548
O 10.0456 17.874 1.21422
O 4.32784 19.8121 4.44485
O 2.1521 7.23724 4.42249
O 4.30272 10.7174 4.12714
O 4.51116 8.50141 4.33666
O 6.27163 11.1541 2.21494
O 8.18592 11.9161 3.08981
O 12.951 26.7983 1.44154
O 8.00575 30.1253 1.33499
O 7.35394 29.089 4.10867
O 9.45617 31.8108 3.23139
O 4.0719 5.53694 2.90387
O 9.57595 20.3901 2.2651
O 11.4688 24.0401 2.05716
O 11.7355 21.8355 1.88229
O 5.78361 25.1229 3.90593
O 8.01876 24.9451 1.00041
68
 Atoms. Timestep: 70431
C 6.14246 16.0005 3.60016
C 4.26135 17.3552 4.37701
C 5.593 17.2406 3.96361
C 5.34228 14.8404 3.74206
C 3.50755 16.1882 4.54743
C 4.03079 14.9375 4.21616
C 2.73979 8.5192 1.32306
C 8.18903 9.69588 2.17203
C 2.13273 9.68507 1.80549
C 1.97777 7.33087 1.29553
C 7.47868 8.49548 2.20447
C 8.09058 7.30755 1.81586
C 13.3824 29.1758 1.60888
C 11.5037 30.4606 2.47761
C 12.7903 30.4022 1.93839
C 12.6323 27.9878 1.78179
C 10.7833 29.2737 2.64377
C 11.3209 28.0461 2.26273
C 9.71354 22.6167 2.85404
C 7.70432 23.7269 3.67618
C 9.07521 23.7325 3.39798
C 8.9707 21.4248 2.70601
C 6.97281 22.5573 3.47132
C 7.58375 21.4144 2.97346
H 6.21235 18.1173 3.94603
H 10.2149 15.3586 1.30285
H 2.71311 10.5923 1.85851
H 6.46342 8.47726 2.57419
H 13.3319 31.3156 1.7572
H 9.81144 29.2964 3.10161
H 9.65202 24.6248 3.56819
H 5.92457 22.5246 3.72159
N 7.4971 15.9466 3.09882
N 3.66933 18.6476 4.61173
N 3.23956 13.7684 4.33841
N 9.65072 12.948 1.03964
N 3.80706 9.46765 4.4812
N 7.53238 10.918 2.51172
N 7.44916 6.07184 2.03465
N 6.74241 5.86036 3.15392
N 7.32774 29.1671 1.1294
N 10.9335 31.7168 2.87228
N 10.5417 26.8666 2.34382
N 9.22976 26.9229 2.60769
N 11.0538 22.7695 2.33522
N 7.04709 24.9218 4.10918
N 6.7509 20.3028 2.69701
N 7.15855 19.2692 1.95144
O 5.81371 13.6542 3.44509
O 8.27334 16.9848 3.16949
O 7.94749 14.8947 2.48816
O 10.1044 17.8559 1.23326
O 4.33558 19.7428 4.39308
O 2.17567 7.12461 4.4292
O 4.31156 10.6048 4.09992
O 4.5312 8.39475 4.35521
O 6.28202 11.1014 2.20773
O 8.19314 11.8891 3.06343
O 13.1437 26.818 1.48599
O 8.10762 30.1808 1.35553
O 7.52208 29.0401 4.14197
O 9.65636 31.795 3.20089
O 4.09749 5.46767 2.93718
O 9.56008 20.3365 2.28509
O 11.5064 23.9597 2.07415
O 11.7317 21.7531 1.89521
O 5.78163 25.0995 3.88497
O 7.72707 25.8997 4.62442
68
 Atoms. Timestep: 80446
C 6.1924 15.9589 3.59037
C 4.2936 17.3054 4.33868
C 5.62993 17.1973 3.93724
C 5.39915 14.7924 3.7354
C 3.54468 16.1329 4.50639
C 4.08127 14.8817 4.19512
C 2.74305 8.48639 1.35094
C 8.21628 9.66371 2.18031
C 2.12863 9.6567 1.81358
C 1.98234 7.29551 1.33523
C 7.50952 8.46149 2.22459
C 8.12536 7.2708 1.85027
C 13.4965 29.1999 1.63947
C 11.5998 30.4739 2.48445
C 12.8958 30.4224 1.9648
C 12.7498 28.0068 1.80507
C 10.8799 29.2839 2.63386
C 11.4313 28.0565 2.26873
C 9.74814 22.5924 2.84248
C 7.7362 23.7141 3.64253
C 9.10922 23.7151 3.37054
C 8.99947 21.4021 2.69677
C 7.00146 22.5465 3.43987
C 7.60998 21.3987 2.95322
H 6.24193 18.0807 3.91392
H 10.2775 15.3526 1.30165
H 2.70533 10.5676 1.85651
H 6.4936 8.44429 2.59202
H 13.4369 31.3404 1.79484
H 9.89649 29.3032 3.06872
H 9.68944 24.6063 3.54083
H 5.95136 22.5192 3.68513
N 7.55244 15.9125 3.1021
N 3.69257 18.5963 4.56585
N 3.3005 13.706 4.32599
N 9.7457 12.9288 1.08336
N 3.81344 9.37773 4.46396
N 7.55515 10.8882 2.50962
N 7.48954 6.03251 2.07049
N 6.72081 5.84206 3.15613
N 7.41454 29.1993 1.17045
N 11.0217 31.7278 2.87797
N 10.6626 26.8693 2.35205
N 9.35304 26.9115 2.62075
N 11.0965 22.733 2.34185
N 7.08176 24.9151 4.07055
N 6.77585 20.2886 2.67914
N 7.19373 19.2438 1.94754
O 5.88172 13.6071 3.4566
O 8.31742 16.9591 3.15843
O 8.01961 14.8525 2.51466
O 10.1622 17.8485 1.24535
O 4.35468 19.694 4.3511
O 2.1849 7.03158 4.42635
O 4.31993 10.5102 4.07505
O 4.54046 8.30557 4.36439
O 6.304 11.0616 2.21697
O 8.21432 11.8671 3.05004
O 13.2701 26.8391 1.52085
O 8.1793 30.2286 1.37062
O 7.6255 29.0096 4.15096
O 9.40002 31.8004 3.18941
O 4.09121 5.40539 2.96621
O 9.58837 20.3077 2.29314
O 11.5672 23.9171 2.09016
O 11.7712 21.7081 1.91519
O 5.81543 25.0887 3.86557
O 7.76699 25.896 4.57368
68
 Atoms. Timestep: 90461
C 6.26036 15.9081 3.59201
C 4.33916 17.2415 4.31222
C 5.68042 17.1432 3.92286
C 5.47848 14.7337 3.74193
C 3.5988 16.0617 4.47878
C 4.15397 14.8121 4.18766
C 2.72839 8.43433 1.37228
C 8.24585 9.62167 2.17713
C 2.10958 9.61068 1.81528
C 1.96603 7.24285 1.36564
C 7.53821 8.41897 2.23082
C 8.15697 7.22284 1.87416
C 13.6142 29.2431 1.6694
C 11.6916 30.4969 2.48987
C 12.9968 30.4586 1.9912
C 12.8777 28.0417 1.82745
C 10.9774 29.3003 2.62042
C 11.5507 28.0768 2.27129
C 9.78379 22.5669 2.82634
C 7.76932 23.7052 3.60289
C 9.14476 23.6985 3.33597
C 9.02967 21.3774 2.6875
C 7.02995 22.5379 3.40648
C 7.63663 21.3827 2.93353
H 6.28373 18.0329 3.89713
H 10.3566 15.3371 1.29785
H 2.68803 10.5218 1.85215
H 6.52129 8.40631 2.5964
H 13.5317 31.383 1.83347
H 9.98334 29.3108 3.03225
H 9.73068 24.5873 3.50547
H 5.97863 22.5149 3.65021
N 7.62583 15.8723 3.11387
N 3.72733 18.5287 4.53261
N 3.38874 13.6269 4.32881
N 9.86364 12.8992 1.12224
N 3.82426 9.25498 4.45995
N 7.58783 10.8505 2.5017
N 7.52197 5.98359 2.10557
N 6.6981 5.81742 3.14941
N 7.48461 29.2579 1.2064
N 11.1013 31.745 2.88346
N 10.7986 26.8784 2.3534
N 9.48711 26.9016 2.61974
N 11.1392 22.6947 2.33917
N 7.12121 24.912 4.02672
N 6.79824 20.2729 2.65967
N 7.21697 19.2183 1.94369
O 5.97784 13.5512 3.48165
O 8.37278 16.9338 3.15346
O 8.11398 14.809 2.55073
O 10.2318 17.8355 1.26808
O 4.37582 19.6313 4.30537
O 2.18988 6.91034 4.43233
O 4.33794 10.3832 4.07141
O 4.55048 8.18022 4.37215
O 6.32529 11.0132 2.23777
O 8.25505 11.8343 3.02563
O 13.415 26.8793 1.55428
O 8.22403 30.3122 1.37665
O 7.73913 29.0018 4.17453
O 9.47468 31.811 3.17631
O 4.07636 5.31006 3.00178
O 9.61749 20.2745 2.30503
O 11.6234 23.8745 2.09369
O 11.8097 21.6639 1.92018
O 5.84535 25.0754 3.85425
O 7.81547 25.8985 4.50862
68
 Atoms. Timestep: 100000
C 6.26027 15.9073 3.59257
C 4.32914 17.2382 4.29469
C 5.66941 17.1425 3.90898
C 5.49177 14.7357 3.75238
C 3.59779 16.0603 4.46233
C 4.169 14.8142 4.18801
C 2.71594 8.43171 1.38047
C 8.23736 9.63278 2.1761
C 2.09436 9.61528 1.80632
C 1.96443 7.2417 1.38841
C 7.53643 8.4312 2.24396
C 8.15962 7.23187 1.89807
C 13.6216 29.2449 1.6855
C 11.6865 30.4941 2.49445
C 12.9954 30.4574 2.00987
C 12.8956 28.0463 1.83659
C 10.9776 29.2976 2.60634
C 11.5688 28.0785 2.26598
C 9.75418 22.5563 2.8098
C 7.74808 23.7179 3.5766
C 9.11883 23.6995 3.30911
C 9.00226 21.3725 2.67378
C 7.009 22.5507 3.38124
C 7.61419 21.387 2.91315
H 6.25877 18.0346 3.87379
H 10.3527 15.3388 1.26951
H 2.66218 10.5274 1.8303
H 6.52185 8.42727 2.61342
H 13.5242 31.3819 1.86528
H 9.97693 29.3103 2.99809
H 9.70005 24.5866 3.4794
H 5.96098 22.5373 3.6245
N 7.62419 15.8691 3.11754
N 3.71125 18.5209 4.51278
N 3.41944 13.6266 4.33976
N 9.89503 12.8967 1.1339
N 3.81002 9.24127 4.47185
N 7.578 10.8622 2.49609
N 7.5261 5.99802 2.14604
N 6.64721 5.87179 3.14551
N 7.49 29.2621 1.22342
N 11.088 31.7372 2.89295
N 10.8348 26.875 2.34534
N 9.52506 26.8886 2.61649
N 11.1126 22.6633 2.33385
N 7.10425 24.9292 4.00134
N 6.7811 20.2742 2.63887
N 7.20426 19.216 1.93405
O 6.00362 13.5544 3.51141
O 8.35603 16.9394 3.14306
O 8.12681 14.8032 2.57274
O 10.2162 17.8269 1.25416
O 4.35875 19.6257 4.29255
O 2.19218 6.90491 4.46611
O 4.32573 10.3631 4.06887
O 4.53971 8.16627 4.40932
O 6.31377 11.0127 2.2453
O 8.23717 11.8532 3.0092
O 13.4441 26.8874 1.57106
O 8.20527 30.334 1.36748
O 7.76177 29.0044 4.2099
O 9.8252 31.8028 3.17176
O 4.05852 5.29985 3.03937
O 9.58868 20.2629 2.30374
O 11.6104 23.8376 2.09167
O 11.7797 21.625 1.92686
O 5.82648 25.086 3.85068
O 7.79546 25.9205 4.47205
68
 Atoms. Timestep: 100514
C 6.37713 15.6957 3.56754
C 4.41789 17.0093 4.22803
C 5.76549 16.9234 3.86592
C 5.61481 14.5181 3.71637
C 3.68846 15.8234 4.37983
C 4.27913 14.5805 4.12133
C 2.68891 8.22815 1.44873
C 8.3734 9.40648 2.1998
C 2.0405 9.40408 1.84467
C 1.95375 7.028 1.46234
C 7.68082 8.19201 2.26852
C 8.33497 6.99887 1.94871
C 13.9163 29.4012 1.74288
C 11.9514 30.6338 2.50356
C 13.2701 30.6022 2.05036
C 13.1934 28.1971 1.88145
C 11.2427 29.432 2.60233
C 11.8531 28.2149 2.2807
C 9.94939 22.5272 2.80616
C 7.92829 23.6816 3.53889
C 9.29832 23.6727 3.27746
C 9.20008 21.3354 2.67486
C 7.19614 22.5097 3.35145
C 7.80515 21.3447 2.90825
H 6.3449 17.8212 3.82267
H 10.5684 15.3165 1.32251
H 2.59314 10.3283 1.87275
H 6.66094 8.17876 2.61833
H 13.7958 31.5304 1.91589
H 10.2339 29.4382 2.97806
H 9.86966 24.571 3.44826
H 6.14492 22.492 3.58516
N 7.75214 15.6741 3.11441
N 3.79339 18.2863 4.43595
N 3.54635 13.3796 4.26392
N 2.46053 12.8393 1.20741
N 3.85124 8.83271 4.40709
N 7.71402 10.6388 2.51743
N 7.71823 5.74059 2.1694
N 6.75272 5.58251 3.08101
N 7.60091 29.4358 1.30176
N 11.3491 31.8787 2.88574
N 11.1341 27.0002 2.35676
N 9.82244 26.9864 2.63098
N 11.3185 22.6425 2.35801
N 7.28092 24.8947 3.95341
N 6.96302 20.2278 2.64474
N 7.37937 19.1425 1.98087
O 6.14651 13.3429 3.48978
O 8.46327 16.7601 3.13892
O 8.2877 14.6088 2.60064
O 10.4283 17.808 1.32016
O 4.44492 19.3935 4.23263
O 2.27023 6.46988 4.4102
O 4.3674 9.96439 4.03402
O 4.59614 7.76905 4.34709
O 6.44833 10.7782 2.27515
O 8.37813 11.6469 2.99156
O 13.7615 27.0445 1.6332
O 8.29147 30.5274 1.43379
O 7.9683 28.954 4.16585
O 9.9324 31.9451 3.1589
O 4.09019 4.92455 3.03541
O 9.79507 20.2224 2.32535
O 11.8209 23.8207 2.13788
O 12.0096 21.6093 1.98038
O 5.99986 25.0323 3.81359
O 7.96861 25.9006 4.40126
68
 Atoms. Timestep: 110545
C 6.38266 15.6274 3.59236
C 4.3757 16.9091 4.16536
C 5.73024 16.8492 3.82304
C 5.655 14.4343 3.78988
C 3.6696 15.7104 4.33046
C 4.30388 14.4753 4.14788
C 2.63242 8.17068 1.47196
C 8.32342 9.36261 2.17211
C 1.97064 9.35913 1.80844
C 1.91021 6.96289 1.54313
C 7.64243 8.14693 2.28623
C 8.29977 6.94438 2.01275
C 13.9828 29.4817 1.82177
C 11.9618 30.6627 2.52089
C 13.2991 30.6685 2.11585
C 13.2902 28.2599 1.95672
C 11.2744 29.4455 2.57906
C 11.9348 28.2436 2.30343
C 9.88531 22.497 2.74443
C 7.86025 23.6946 3.41627
C 9.23633 23.6654 3.16295
C 9.1289 21.3117 2.63995
C 7.1192 22.5247 3.25054
C 7.73132 21.3418 2.84618
H 6.28146 17.7615 3.74138
H 10.5855 15.2614 1.26592
H 2.51563 10.2881 1.77999
H 6.62472 8.14014 2.64197
H 13.8075 31.6107 2.00949
H 10.2422 29.4298 2.88622
H 9.8193 24.557 3.30909
H 6.06735 22.5187 3.47853
N 7.76529 15.6264 3.16041
N 3.72542 18.1793 4.35376
N 3.60368 13.2577 4.32811
N 2.54128 12.7674 1.26806
N 3.76937 8.68732 4.40847
N 7.65839 10.5978 2.47101
N 7.68228 5.69748 2.27368
N 6.59489 5.60116 3.04383
N 7.65079 29.5499 1.38574
N 11.3213 31.8913 2.89851
N 11.2534 27.0052 2.37138
N 9.93434 26.9469 2.59829
N 11.271 22.5693 2.33936
N 7.22245 24.9175 3.81826
N 6.89329 20.2239 2.59208
N 7.32735 19.1222 1.96722
O 6.23296 13.2666 3.65699
O 8.43473 16.737 3.10769
O 8.34394 14.5535 2.71366
O 10.4228 17.7696 1.31317
O 4.35859 19.297 4.16737
O 2.22569 7.41179 4.50102
O 4.29309 9.80329 4.0082
O 4.52375 7.62967 4.40448
O 6.36971 10.703 2.33225
O 8.33495 11.6233 2.89001
O 13.8981 27.1196 1.75292
O 8.26987 30.6905 1.38184
O 8.03761 28.9843 4.2863
O 10.0428 31.9404 3.10646
O 4.03394 4.75635 3.13702
O 9.71999 20.1788 2.3528
O 11.8129 23.7261 2.11202
O 11.9535 21.5112 2.02022
O 5.92783 25.0314 3.79681
O 7.93109 25.9352 4.2017
68
 Atoms. Timestep: 120554
C 6.39877 15.6284 3.61858
C 4.37373 16.8989 4.15405
C 5.73077 16.8475 3.81512
C 5.68372 14.431 3.84563
C 3.67837 15.6951 4.33845
C 4.33005 14.4636 4.1918
C 2.61039 8.18227 1.4565
C 8.29786 9.38055 2.14105
C 1.94587 9.37492 1.77619
C 1.88842 6.97385 1.53969
C 7.61539 8.16653 2.25539
C 8.27181 6.95974 1.99306
C 14.0003 29.5164 1.85073
C 11.963 30.6842 2.52804
C 13.3054 30.7003 2.13502
C 13.3185 28.288 1.99658
C 11.2856 29.4617 2.589
C 11.9618 28.2623 2.33401
C 9.86335 22.5026 2.72477
C 7.84321 23.7124 3.38762
C 9.21837 23.6783 3.12936
C 9.10242 21.3174 2.63304
C 7.09879 22.5419 3.23226
C 7.70585 21.3545 2.83389
H 6.27131 17.7658 3.71209
H 10.6062 15.2633 1.27048
H 2.48783 10.304 1.73573
H 6.59234 8.16146 2.60513
H 13.8067 31.6483 2.03081
H 10.2471 29.4406 2.88343
H 9.80177 24.57 3.26133
H 6.04568 22.5406 3.45999
N 7.78301 15.6343 3.19073
N 3.71177 18.1678 4.32279
N 3.64259 13.242 4.40036
N 2.60098 12.7699 1.35024
N 3.73097 8.67918 4.38571
N 7.63349 10.6133 2.44515
N 7.64303 5.71637 2.24776
N 6.51694 5.63863 2.9683
N 7.66659 29.597 1.40352
N 11.3062 31.9071 2.89146
N 11.2935 27.0168 2.41526
N 9.97756 26.9516 2.64796
N 11.2536 22.5665 2.32609
N 7.20754 24.937 3.78902
N 6.86753 20.2392 2.59
N 7.30791 19.1383 1.96839
O 6.27478 13.2668 3.75451
O 8.43101 16.7539 3.07438
O 8.38009 14.5503 2.79762
O 10.4311 17.7644 1.31825
O 4.33927 19.2884 4.10869
O 1.96111 5.53761 4.51496
O 4.25953 9.80389 3.99758
O 4.47177 7.6097 4.3638
O 6.34179 10.7103 2.3698
O 8.31345 11.6411 2.84395
O 13.9356 27.1506 1.80798
O 8.24247 30.7551 1.28498
O 8.06099 28.9998 4.36273
O 10.0204 31.9531 3.04426
O 4.00368 4.72603 3.17022
O 9.69126 20.1802 2.36246
O 11.806 23.7211 2.09078
O 11.9283 21.4972 2.02291
O 5.91437 25.0467 3.80326
O 7.91785 25.9562 4.15962
68
 Atoms. Timestep: 130562
C 6.39758 15.5966 3.62857
C 4.36708 16.8625 4.15311
C 5.72438 16.814 3.81553
C 5.68685 14.3981 3.86297
C 3.67595 15.6575 4.34414
C 4.33287 14.4277 4.20705
C 2.59561 8.15692 1.44486
C 8.28008 9.35498 2.12317
C 1.92889 9.34951 1.75932
C 1.87549 6.94766 1.53235
C 7.59797 8.14076 2.23607
C 8.25589 6.93402 1.97807
C 14.0022 29.5155 1.86013
C 11.9588 30.6767 2.5295
C 13.3019 30.697 2.14035
C 13.3255 28.2848 2.01036
C 11.2866 29.452 2.59429
C 11.9686 28.2547 2.34613
C 9.85327 22.4839 2.72213
C 7.83349 23.6953 3.38233
C 9.20825 23.6608 3.12226
C 9.09233 21.2985 2.63439
C 7.08923 22.5244 3.23065
C 7.69591 21.3362 2.83508
H 6.26094 17.7334 3.70539
H 10.616 15.2443 1.27883
H 2.46916 10.2791 1.71566
H 6.57445 8.13535 2.58337
H 13.7997 31.6464 2.03554
H 10.2481 29.4282 2.88833
H 9.79143 24.5529 3.25021
H 6.03678 22.5229 3.46032
N 7.78225 15.6052 3.20238
N 3.70136 18.13 4.31588
N 3.65143 13.2046 4.42622
N 2.62614 12.7496 1.391
N 3.70297 8.63477 4.37098
N 7.61699 10.5876 2.43123
N 7.62579 5.69073 2.22951
N 6.4872 5.61496 2.93004
N 7.6677 29.6012 1.40906
N 11.2966 31.8979 2.88732
N 11.3063 27.0067 2.43442
N 9.99212 26.9367 2.67487
N 11.2439 22.546 2.32501
N 7.19853 24.92 3.78399
N 6.8573 20.2208 2.59315
N 7.29735 19.1192 1.97366
O 6.28192 13.2356 3.7796
O 8.42018 16.7278 3.06051
O 8.3889 14.5187 2.83242
O 10.4351 17.7455 1.32143
O 4.32477 19.2516 4.09391
O 2.10568 6.1681 4.5135
O 4.23301 9.76194 3.99119
O 4.44086 7.56384 4.33425
O 6.32348 10.6802 2.37864
O 8.30017 11.6162 2.82288
O 13.9469 27.1494 1.82536
O 8.22522 30.7638 1.24827
O 8.06109 28.9816 4.39145
O 10.0088 31.9422 3.02398
O 3.9853 4.67863 3.17892
O 9.68078 20.1603 2.36737
O 11.7975 23.6998 2.08697
O 11.9179 21.4757 2.02529
O 5.90495 25.0264 3.8091
O 7.90987 25.9397 4.1516
68
 Atoms. Timestep: 140651
C 6.40774 15.5468 3.63385
C 4.3737 16.8092 4.14717
C 5.73053 16.7623 3.81055
C 5.70056 14.3481 3.87579
C 3.68521 15.6037 4.34535
C 4.3454 14.375 4.217
C 2.59934 8.11246 1.43909
C 8.2732 9.30758 2.11351
C 1.93 9.30381 1.75037
C 1.88233 6.90116 1.53172
C 7.59196 8.09264 2.22533
C 8.25141 6.88618 1.96973
C 14.0608 29.5499 1.86759
C 12.0138 30.7072 2.5301
C 13.3572 30.7293 2.14463
C 13.3871 28.318 2.02157
C 11.3446 29.4813 2.5993
C 12.0292 28.2847 2.35573
C 9.88252 22.4784 2.71573
C 7.86364 23.6888 3.37657
C 9.23735 23.6559 3.11411
C 9.1222 21.2916 2.63056
C 7.12018 22.5165 3.22832
C 7.72616 21.3278 2.83313
H 6.26345 17.6823 3.68762
H 10.6497 15.2363 1.28622
H 2.46776 10.2355 1.7044
H 6.56887 8.08574 2.57108
H 13.8533 31.679 2.04045
H 10.3073 29.4555 2.89555
H 9.81925 24.5507 3.23778
H 6.06919 22.5137 3.46165
N 7.79253 15.5584 3.20939
N 3.70691 18.0763 4.30345
N 3.6702 13.1505 4.44613
N 2.68095 12.734 1.42902
N 3.67369 8.54626 4.3597
N 7.61313 10.5408 2.42621
N 7.62177 5.6418 2.21385
N 6.46922 5.56231 2.88868
N 7.73493 29.6391 1.41645
N 11.3508 31.9289 2.88519
N 11.3718 27.0345 2.45204
N 10.0605 26.9566 2.70639
N 11.2731 22.5398 2.32128
N 7.23032 24.9135 3.78076
N 6.88719 20.2101 2.59521
N 7.32444 19.1044 1.97874
O 6.29977 13.1877 3.80159
O 8.41856 16.6826 3.03905
O 8.40855 14.47 2.86188
O 10.4661 17.7408 1.31725
O 4.32863 19.1959 4.07674
O 2.4301 5.77205 1.16876
O 4.20366 9.67405 3.98908
O 4.41068 7.47662 4.30872
O 6.31837 10.6318 2.38879
O 8.30167 11.5707 2.81092