# data_ID_5

68 atoms
4 atom types
68 bonds
100 angles
136 dihedrals
96 impropers


7 bond types
8 angle types
3 dihedral types
1 improper types

0.000000   11.860529   xlo xhi
0.000000   33.259460   ylo yhi
0.000000    3.712531   zlo zhi

-18.673344   -1.603591    1.442967   xy xz yz

Atoms

1  1  1 0.362833 1.375631 0.151426 2.103575
2  1  1 0.362833 2.906686 2.009536 2.305366
3  1  1 0.362833 2.561093 0.691290 2.602698
4  1  1 0.362833 0.535783 0.929856 1.307361
5  1  1 0.362833 2.066789 2.787827 1.508807
6  1  1 0.341367 0.881403 2.248023 1.009708
7  1  1 -0.128654 4.412992 13.780220 7.305965
8  1  1 0.082228 5.944047 15.638330 7.507756
9  1  1 -0.080598 5.598454 14.320084 7.805088
10  1  1 0.324103 3.573144 14.558650 6.509751
11  1  1 0.362833 5.104149 16.416621 6.711198
12  1  1 0.341367 3.918764 15.876816 6.212098
13  1  1 -0.128654 9.115972 3.740587 4.042031
14  1  1 0.082228 10.647027 5.598697 4.243822
15  1  1 -0.080598 10.301435 4.280451 4.541153
16  1  1 0.324103 8.276124 4.519017 3.245816
17  1  1 0.362833 9.807130 6.376988 3.447263
18  1  1 0.341367 8.621744 5.837184 2.948164
19  1  1 -0.128654 0.017625 25.723790 18.409328
20  1  1 0.082228 1.548680 27.581899 18.611118
21  1  1 -0.080598 1.203088 26.263654 18.908450
22  1  1 0.324103 -0.822223 26.502219 17.613113
23  1  1 0.362833 0.708783 28.360191 17.814560
24  1  1 0.341367 -0.476603 27.820386 17.315460
25  1  2 -0.128654 3.222716 0.092817 3.224630
26  1  2 0.082228 2.312740 3.818435 1.262156
27  1  2 -0.080598 6.260076 13.721610 8.427020
28  1  2 0.324103 5.350101 17.447229 6.464546
29  1  2 -0.071561 10.963057 3.681978 5.163086
30  1  2 -0.071561 10.053081 7.407596 3.200612
31  1  2 -0.071561 1.864710 25.665180 19.530383
32  1  2 -0.071561 0.954734 29.390798 17.567908
33  1  3 -0.071561 1.074561 -1.203767 2.441727
34  1  3 -0.069518 4.113046 2.559606 2.813761
35  1  3 -0.173863 0.079751 3.060789 0.223730
36  1  3 0.112633 -0.548308 3.697800 -0.392447
37  1  3 -0.071561 4.111921 12.425026 7.644117
38  1  3 -0.069518 7.150407 16.188400 8.016151
39  1  3 -0.173863 3.117112 16.689583 5.426120
40  1  3 0.112633 2.489053 17.326593 4.809944
41  1  3 -0.071561 8.814902 2.385394 4.380183
42  1  3 -0.069518 11.853387 6.148767 4.752217
43  1  3 -0.173863 7.820092 6.649950 2.162186
44  1  3 0.112633 7.192033 7.286961 1.546009
45  1  3 -0.071561 -0.283445 24.368596 18.747479
46  1  3 -0.069518 2.755040 28.131969 19.119513
47  1  3 -0.173863 -1.278255 28.633152 16.529482
48  1  3 0.112633 -1.906314 29.270163 15.913306
49  1  4 -0.071561 -0.559168 0.440423 0.842965
50  1  4 -0.069518 1.879384 -1.834745 3.161237
51  1  4 -0.173863 0.016877 -1.709201 2.006092
52  1  4 0.112633 4.404528 3.747680 2.534747
53  1  4 -0.071561 4.854363 1.842694 3.528638
54  1  4 -0.069518 2.478193 14.069217 6.045355
55  1  4 -0.173863 4.916745 11.794048 8.363627
56  1  4 0.112633 3.054238 11.919593 7.208482
57  1  4 -0.071561 7.441889 17.376474 7.737137
58  1  4 -0.069518 7.891723 15.471488 8.731028
59  1  4 -0.173863 7.181173 4.029584 2.781421
60  1  4 0.112633 9.619726 1.754416 5.099693
61  1  4 -0.071561 7.757218 1.879960 3.944547
62  1  4 -0.069518 12.144870 7.336841 4.473203
63  1  4 -0.173863 12.594704 5.431855 5.467093
64  1  4 0.112633 -1.917174 26.012786 17.148718
65  1  4 -0.302271 0.521379 23.737618 19.466990
66  1  4 -0.235574 -1.341129 23.863162 18.311844
67  1  4 -0.179793 3.046523 29.320043 18.840500
68  1  4 -0.236393 3.496357 27.415057 19.834390
Masses

    1    12.010700000 # C_R
    2     1.007940000 # H_
    3    14.006700000 # N_R
    4    14.006700000 # N_2

Bond Coeffs

    1      462.655054        1.379256  # C_R C_R
    2      561.491352        1.422196  # C_R N_R
    3      357.440381        1.081418  # C_R H_
    4      646.680887        1.311940  # C_R O_R
    5      578.340382        1.408249  # C_R N_2
    6      884.941708        1.299717  # N_R O_R
    7      891.177974        1.341000  # N_2 N_1

Angle Coeffs

    1      111.297508              -1               3 # C_R C_R C_R
    2      141.337441              -1               3 # C_R C_R N_R
    3       57.289016              -1               3 # C_R C_R H_
    4      144.065775              -1               3 # C_R C_R O_R
    5      143.493294              -1               3 # C_R C_R N_2
    6      138.990244              -1               3 # C_R N_R O_R
    7      192.465780              -1               3 # O_R N_R O_R
    8      182.341381              -1               3 # C_R N_2 N_1

Dihedral Coeffs

    1        3.368555              -1               2 # C_R C_R C_R C_R
    2        1.250000              -1               2 # C_R C_R N_R O_R
    3        2.500000              -1               2 # C_R C_R N_2 N_1

Improper Coeffs

    1        2.000000        1.000000       -1.000000        0.000000               0 # C_R C_R C_R N_R

Pair Coeffs

    1        0.105000        3.430851 # C_R C_R
    2        0.044000        2.571134 # H_ H_
    3        0.069000        3.260689 # N_R N_R
    4        0.069000        3.260689 # N_2 N_2

Bonds

       1        1        1        3
       2        1        1        4
       3        2        1       33
       4        1        2        3
       5        1        2        5
       6        2        2       34
       7        3        3       25
       8        1        4        6
       9        4        4       49
      10        1        5        6
      11        3        5       26
      12        5        6       35
      13        1        7        9
      14        1        7       10
      15        2        7       37
      16        1        8        9
      17        1        8       11
      18        2        8       38
      19        3        9       27
      20        1       10       12
      21        4       10       54
      22        1       11       12
      23        3       11       28
      24        5       12       39
      25        1       13       15
      26        1       13       16
      27        2       13       41
      28        1       14       15
      29        1       14       17
      30        2       14       42
      31        3       15       29
      32        1       16       18
      33        4       16       59
      34        1       17       18
      35        3       17       30
      36        5       18       43
      37        1       19       21
      38        1       19       22
      39        2       19       45
      40        1       20       21
      41        1       20       23
      42        2       20       46
      43        3       21       31
      44        1       22       24
      45        4       22       64
      46        1       23       24
      47        3       23       32
      48        5       24       47
      49        6       33       50
      50        6       33       51
      51        6       34       52
      52        6       34       53
      53        7       35       36
      54        6       37       55
      55        6       37       56
      56        6       38       57
      57        6       38       58
      58        7       39       40
      59        6       41       60
      60        6       41       61
      61        6       42       62
      62        6       42       63
      63        7       43       44
      64        6       45       65
      65        6       45       66
      66        6       46       67
      67        6       46       68
      68        7       47       48

Angles

       1        1        3        1        4
       2        2        3        1       33
       3        2        4        1       33
       4        1        3        2        5
       5        2        3        2       34
       6        2        5        2       34
       7        1        1        3        2
       8        3        1        3       25
       9        3        2        3       25
      10        1        1        4        6
      11        4        1        4       49
      12        4        6        4       49
      13        1        2        5        6
      14        3        2        5       26
      15        3        6        5       26
      16        1        4        6        5
      17        5        4        6       35
      18        5        5        6       35
      19        1        9        7       10
      20        2        9        7       37
      21        2       10        7       37
      22        1        9        8       11
      23        2        9        8       38
      24        2       11        8       38
      25        1        7        9        8
      26        3        7        9       27
      27        3        8        9       27
      28        1        7       10       12
      29        4        7       10       54
      30        4       12       10       54
      31        1        8       11       12
      32        3        8       11       28
      33        3       12       11       28
      34        1       10       12       11
      35        5       10       12       39
      36        5       11       12       39
      37        1       15       13       16
      38        2       15       13       41
      39        2       16       13       41
      40        1       15       14       17
      41        2       15       14       42
      42        2       17       14       42
      43        1       13       15       14
      44        3       13       15       29
      45        3       14       15       29
      46        1       13       16       18
      47        4       13       16       59
      48        4       18       16       59
      49        1       14       17       18
      50        3       14       17       30
      51        3       18       17       30
      52        1       16       18       17
      53        5       16       18       43
      54        5       17       18       43
      55        1       21       19       22
      56        2       21       19       45
      57        2       22       19       45
      58        1       21       20       23
      59        2       21       20       46
      60        2       23       20       46
      61        1       19       21       20
      62        3       19       21       31
      63        3       20       21       31
      64        1       19       22       24
      65        4       19       22       64
      66        4       24       22       64
      67        1       20       23       24
      68        3       20       23       32
      69        3       24       23       32
      70        1       22       24       23
      71        5       22       24       47
      72        5       23       24       47
      73        6        1       33       50
      74        6        1       33       51
      75        7       50       33       51
      76        6        2       34       52
      77        6        2       34       53
      78        7       52       34       53
      79        8        6       35       36
      80        6        7       37       55
      81        6        7       37       56
      82        7       55       37       56
      83        6        8       38       57
      84        6        8       38       58
      85        7       57       38       58
      86        8       12       39       40
      87        6       13       41       60
      88        6       13       41       61
      89        7       60       41       61
      90        6       14       42       62
      91        6       14       42       63
      92        7       62       42       63
      93        8       18       43       44
      94        6       19       45       65
      95        6       19       45       66
      96        7       65       45       66
      97        6       20       46       67
      98        6       20       46       68
      99        7       67       46       68
     100        8       24       47       48

Dihedrals

       1        1        4        1        3        2
       2        1        4        1        3       25
       3        1       33        1        3        2
       4        1       33        1        3       25
       5        1        3        1        4        6
       6        1        3        1        4       49
       7        1       33        1        4        6
       8        1       33        1        4       49
       9        2        3        1       33       50
      10        2        3        1       33       51
      11        2        4        1       33       50
      12        2        4        1       33       51
      13        1        5        2        3        1
      14        1        5        2        3       25
      15        1       34        2        3        1
      16        1       34        2        3       25
      17        1        3        2        5        6
      18        1        3        2        5       26
      19        1       34        2        5        6
      20        1       34        2        5       26
      21        2        3        2       34       52
      22        2        3        2       34       53
      23        2        5        2       34       52
      24        2        5        2       34       53
      25        1        1        4        6        5
      26        1        1        4        6       35
      27        1       49        4        6        5
      28        1       49        4        6       35
      29        1        2        5        6        4
      30        1        2        5        6       35
      31        1       26        5        6        4
      32        1       26        5        6       35
      33        3        4        6       35       36
      34        3        5        6       35       36
      35        1       10        7        9        8
      36        1       10        7        9       27
      37        1       37        7        9        8
      38        1       37        7        9       27
      39        1        9        7       10       12
      40        1        9        7       10       54
      41        1       37        7       10       12
      42        1       37        7       10       54
      43        2        9        7       37       55
      44        2        9        7       37       56
      45        2       10        7       37       55
      46        2       10        7       37       56
      47        1       11        8        9        7
      48        1       11        8        9       27
      49        1       38        8        9        7
      50        1       38        8        9       27
      51        1        9        8       11       12
      52        1        9        8       11       28
      53        1       38        8       11       12
      54        1       38        8       11       28
      55        2        9        8       38       57
      56        2        9        8       38       58
      57        2       11        8       38       57
      58        2       11        8       38       58
      59        1        7       10       12       11
      60        1        7       10       12       39
      61        1       54       10       12       11
      62        1       54       10       12       39
      63        1        8       11       12       10
      64        1        8       11       12       39
      65        1       28       11       12       10
      66        1       28       11       12       39
      67        3       10       12       39       40
      68        3       11       12       39       40
      69        1       16       13       15       14
      70        1       16       13       15       29
      71        1       41       13       15       14
      72        1       41       13       15       29
      73        1       15       13       16       18
      74        1       15       13       16       59
      75        1       41       13       16       18
      76        1       41       13       16       59
      77        2       15       13       41       60
      78        2       15       13       41       61
      79        2       16       13       41       60
      80        2       16       13       41       61
      81        1       17       14       15       13
      82        1       17       14       15       29
      83        1       42       14       15       13
      84        1       42       14       15       29
      85        1       15       14       17       18
      86        1       15       14       17       30
      87        1       42       14       17       18
      88        1       42       14       17       30
      89        2       15       14       42       62
      90        2       15       14       42       63
      91        2       17       14       42       62
      92        2       17       14       42       63
      93        1       13       16       18       17
      94        1       13       16       18       43
      95        1       59       16       18       17
      96        1       59       16       18       43
      97        1       14       17       18       16
      98        1       14       17       18       43
      99        1       30       17       18       16
     100        1       30       17       18       43
     101        3       16       18       43       44
     102        3       17       18       43       44
     103        1       22       19       21       20
     104        1       22       19       21       31
     105        1       45       19       21       20
     106        1       45       19       21       31
     107        1       21       19       22       24
     108        1       21       19       22       64
     109        1       45       19       22       24
     110        1       45       19       22       64
     111        2       21       19       45       65
     112        2       21       19       45       66
     113        2       22       19       45       65
     114        2       22       19       45       66
     115        1       23       20       21       19
     116        1       23       20       21       31
     117        1       46       20       21       19
     118        1       46       20       21       31
     119        1       21       20       23       24
     120        1       21       20       23       32
     121        1       46       20       23       24
     122        1       46       20       23       32
     123        2       21       20       46       67
     124        2       21       20       46       68
     125        2       23       20       46       67
     126        2       23       20       46       68
     127        1       19       22       24       23
     128        1       19       22       24       47
     129        1       64       22       24       23
     130        1       64       22       24       47
     131        1       20       23       24       22
     132        1       20       23       24       47
     133        1       32       23       24       22
     134        1       32       23       24       47
     135        3       22       24       47       48
     136        3       23       24       47       48

Impropers

       1        1        1        3        4       33
       2        1        1        4        3       33
       3        1        1       33        3        4
       4        1        2        3        5       34
       5        1        2        5        3       34
       6        1        2       34        3        5
       7        1        3        1        2       25
       8        1        3        2        1       25
       9        1        3       25        1        2
      10        1        4        1        6       49
      11        1        4        6        1       49
      12        1        4       49        1        6
      13        1        5        2        6       26
      14        1        5        6        2       26
      15        1        5       26        2        6
      16        1        6        4        5       35
      17        1        6        5        4       35
      18        1        6       35        4        5
      19        1        7        9       10       37
      20        1        7       10        9       37
      21        1        7       37        9       10
      22        1        8        9       11       38
      23        1        8       11        9       38
      24        1        8       38        9       11
      25        1        9        7        8       27
      26        1        9        8        7       27
      27        1        9       27        7        8
      28        1       10        7       12       54
      29        1       10       12        7       54
      30        1       10       54        7       12
      31        1       11        8       12       28
      32        1       11       12        8       28
      33        1       11       28        8       12
      34        1       12       10       11       39
      35        1       12       11       10       39
      36        1       12       39       10       11
      37        1       13       15       16       41
      38        1       13       16       15       41
      39        1       13       41       15       16
      40        1       14       15       17       42
      41        1       14       17       15       42
      42        1       14       42       15       17
      43        1       15       13       14       29
      44        1       15       14       13       29
      45        1       15       29       13       14
      46        1       16       13       18       59
      47        1       16       18       13       59
      48        1       16       59       13       18
      49        1       17       14       18       30
      50        1       17       18       14       30
      51        1       17       30       14       18
      52        1       18       16       17       43
      53        1       18       17       16       43
      54        1       18       43       16       17
      55        1       19       21       22       45
      56        1       19       22       21       45
      57        1       19       45       21       22
      58        1       20       21       23       46
      59        1       20       23       21       46
      60        1       20       46       21       23
      61        1       21       19       20       31
      62        1       21       20       19       31
      63        1       21       31       19       20
      64        1       22       19       24       64
      65        1       22       24       19       64
      66        1       22       64       19       24
      67        1       23       20       24       32
      68        1       23       24       20       32
      69        1       23       32       20       24
      70        1       24       22       23       47
      71        1       24       23       22       47
      72        1       24       47       22       23
      73        1       33        1       50       51
      74        1       33       50        1       51
      75        1       33       51        1       50
      76        1       34        2       52       53
      77        1       34       52        2       53
      78        1       34       53        2       52
      79        1       37        7       55       56
      80        1       37       55        7       56
      81        1       37       56        7       55
      82        1       38        8       57       58
      83        1       38       57        8       58
      84        1       38       58        8       57
      85        1       41       13       60       61
      86        1       41       60       13       61
      87        1       41       61       13       60
      88        1       42       14       62       63
      89        1       42       62       14       63
      90        1       42       63       14       62
      91        1       45       19       65       66
      92        1       45       65       19       66
      93        1       45       66       19       65
      94        1       46       20       67       68
      95        1       46       67       20       68
      96        1       46       68       20       67
