68
 Atoms. Timestep: 0
C -17.2977 33.4109 2.10358
C 2.90669 2.00954 2.30537
C -16.1123 33.9507 2.6027
C 0.535783 0.929856 1.30736
C 2.06679 2.78783 1.50881
C 0.881403 2.24802 1.00971
C -5.84395 12.3373 3.59343
C -2.7093 12.7524 0.082694
C -3.05489 11.4341 0.380026
C -6.68379 13.1157 2.79722
C -5.15279 14.9737 2.99867
C -6.33817 14.4338 2.49957
C -1.14097 2.29762 0.3295
C 0.390089 4.15573 0.531291
C 0.044497 2.83748 0.828622
C 8.27612 4.51902 3.24582
C -2.0534 6.37699 3.44726
C -3.23879 5.83718 2.94816
C -5.42854 19.9519 3.5592
C -2.29389 20.3671 0.048463
C -2.63949 19.0488 0.345795
C -6.26839 20.7304 2.76299
C -4.73738 22.5883 2.96444
C -5.92277 22.0485 2.46534
H -15.4506 33.3523 3.22463
H 2.31274 3.81844 1.26216
H -2.39327 10.8357 1.00196
H -4.90684 16.0043 2.75202
H 0.706119 2.23901 1.45056
H -1.80745 7.4076 3.20061
H -1.97786 18.4503 0.967728
H -4.49143 23.6189 2.71778
N -17.5988 32.0557 2.44173
N 4.11305 2.55961 2.81376
N 0.079751 3.06079 0.22373
N -2.1519 5.14077 3.32008
N -4.54143 9.53909 0.219055
N -1.50294 13.3025 0.591089
N -7.13983 15.2466 1.71359
N -7.76788 15.8836 1.09741
N 10.4185 0.942427 0.667652
N 1.59645 4.7058 1.03969
N -4.04044 6.64995 2.16219
N 7.19203 7.28696 1.54601
N -4.12602 17.1538 0.184824
N -1.08753 20.9171 0.556858
N -6.72442 22.8613 1.67936
N -7.35248 23.4983 1.06318
O 11.3014 0.440423 0.842965
O -16.794 31.4247 3.16124
O -6.79594 31.5503 2.00609
O 4.40453 3.74768 2.53475
O 4.85436 1.84269 3.52864
O 4.08178 12.6263 2.33282
O -3.7366 8.90811 0.938565
O 4.65783 10.4766 3.49595
O -1.21146 14.4905 0.312075
O -0.761624 12.5856 1.30597
O 7.18117 4.02958 2.78142
O -7.45003 33.5709 1.38716
O 9.36081 0.436993 0.232016
O 1.88793 5.89387 0.760672
O 2.33777 3.98889 1.75456
O -7.36334 20.2409 2.29859
O -3.3212 16.5228 0.904335
O -6.78729 18.0913 3.46172
O -0.796051 22.1052 0.277845
O -0.346217 20.2002 1.27173
68
 Atoms. Timestep: 56
C -34.2175 34.8788 2.2764
C -1.50854 2.33468 2.58452
C -33.2383 35.6689 3.06269
C -3.22142 0.701269 0.88229
C -1.66096 2.60974 1.1696
C -2.23807 1.7481 0.259156
C -16.9568 13.5939 4.68975
C -8.17896 12.6369 -1.02334
C -8.86381 11.3976 -0.554076
C -17.2582 14.1071 3.3812
C -15.6067 16.0834 3.70629
C -16.5709 15.3373 2.9292
C -5.04473 1.93689 -0.59152
C -3.36304 4.18958 -0.131221
C -4.3946 2.976 0.42336
C 4.55174 5.38195 4.07722
C -10.7394 7.62641 4.47473
C -11.8777 6.79874 3.62741
C -17.3426 21.4895 4.63405
C -8.56475 20.5324 -1.07905
C -9.24961 19.2933 -0.609759
C -17.6447 22.0029 3.32525
C -15.9906 23.9772 3.64942
C -16.959 23.2331 2.87418
H -32.9931 35.2897 4.07177
H -0.9203 3.374 0.564194
H -8.61948 11.017 0.458495
H -15.0927 17.0333 3.32265
H -4.01968 2.52214 1.49745
H -10.0741 8.30973 4.04181
H -9.0053 18.9126 0.402854
H -15.4786 24.929 3.2671
N -34.8838 33.6519 2.78621
N -0.516374 3.12605 3.38771
N -2.67165 2.0204 -1.02679
N -9.89374 5.61116 4.07935
N -10.5176 9.38776 -0.831943
N -7.18829 13.4036 -0.224585
N -16.8752 15.7895 1.68388
N -17.0642 16.3544 0.551319
N 11.0349 0.771371 -0.0107851
N -2.31863 4.87204 0.660434
N -11.8139 7.05693 2.36814
N 4.79038 7.59445 1.27121
N -10.9035 17.2832 -0.887303
N -7.57413 21.2992 -0.28021
N -17.263 23.6954 1.63461
N -17.4469 24.2416 0.490629
O 12.755 -0.0805525 -0.0281104
O -34.5662 33.2569 3.97972
O -18.8576 32.9295 2.13026
O 0.0787892 4.19012 2.98094
O -0.232896 2.68573 4.5738
O -1.2578 13.4402 2.64139
O -10.1912 8.98766 0.363265
O -1.59638 11.6662 4.53779
O -6.6041 14.4685 -0.635793
O -6.90223 12.9601 0.960909
O 3.74003 4.67921 3.36493
O -19.7802 34.8938 1.27131
O 10.4751 -0.0758841 -0.791349
O -1.58965 5.73753 0.0852475
O -2.23517 4.69447 2.01397
O -18.5311 21.3357 2.58574
O -10.5803 16.8812 0.30916
O -18.8696 19.5618 4.48247
O -6.98989 22.3641 -0.691419
O -7.28804 20.8557 0.905282
68
 Atoms. Timestep: 10061
C -33.6859 34.8452 1.73765
C -1.14459 2.44758 1.72252
C -1.93852 1.54451 2.41178
C -2.6555 0.546981 0.336398
C -1.1219 2.38829 0.329384
C -1.87038 1.44479 -0.366455
C -16.3739 14.143 4.54992
C -8.33901 13.3444 -1.02446
C -8.65031 12.051 -0.614514
C -16.7933 14.5939 3.28594
C -15.7615 16.7227 3.69973
C -16.4915 15.8831 2.86288
C -5.66965 2.48633 0.103332
C -4.04235 4.24488 0.460757
C -4.9436 3.3167 0.956596
C 4.21696 5.5483 4.70229
C -3.86982 4.33205 -0.918753
C -11.5781 6.46699 4.19273
C -17.146 20.7352 4.59946
C -15.5352 22.5305 4.83876
C -9.12526 18.4095 -0.678765
C -17.6013 21.3131 3.39794
C -15.9979 23.0794 3.63847
C -17.0259 22.4802 2.91763
H -32.9652 35.84 3.48314
H -0.522249 3.07994 -0.216549
H -8.33606 11.7084 0.356206
H -15.5315 17.7146 3.3697
H -5.07205 3.22445 2.01694
H -10.1683 7.98574 4.6678
H -8.76968 17.9705 0.23758
H -15.5602 23.9789 3.2649
N -34.4773 33.9296 2.48834
N -0.370131 3.42023 2.43306
N -8.83653 4.32805 4.20902
N -8.10782 5.15801 3.47828
N -9.6834 9.87534 -0.972515
N -7.59439 14.2171 -0.165707
N -16.9296 16.3151 1.58928
N -16.6858 17.54 1.13226
N 10.1076 1.54907 0.656447
N -3.30246 5.08808 1.35283
N -11.4121 6.55911 2.79656
N -10.5717 7.42026 2.24517
N -10.7267 16.5852 -0.862207
N -7.48989 20.2092 -0.403869
N -17.5035 23.0405 1.70908
N -17.0008 24.1576 1.19881
O -17.6147 33.8959 -0.324819
O -34.1305 33.5954 3.69028
O -18.8892 33.4757 2.01124
O 0.383146 4.24446 1.80073
O -0.40487 3.49267 3.72219
O -17.4404 13.7996 2.47716
O -8.88166 9.25828 -0.160158
O -17.7907 12.265 4.69759
O -7.28486 15.407 -0.550036
O -7.21389 13.8328 1.01127
O 3.52098 4.82047 3.87156
O 9.56619 1.77292 1.8034
O 9.85944 0.431439 0.0611247
O -2.44701 5.9297 0.899669
O -3.47365 5.02549 2.63016
O -18.5926 20.7875 2.73219
O -10.6463 16.317 0.399682
O -18.2716 18.668 4.34201
O -6.95472 21.2989 -0.827366
O -7.05649 19.7041 0.708047
68
 Atoms. Timestep: 20141
C -1.56022 2.18521 1.53377
C 0.279654 3.78159 1.36065
C -0.619076 3.03161 2.12996
C -1.59538 2.08625 0.133076
C 0.22626 3.67637 -0.0274133
C -0.700898 2.82654 -0.641294
C -11.9062 14.9289 4.57637
C -4.57771 14.3684 -1.06546
C -5.25639 13.2534 -0.570703
C -12.2211 15.4199 3.29481
C -10.5619 17.1629 3.55998
C -11.5612 16.5465 2.79512
C -4.40044 3.71401 0.0548701
C -2.59777 5.18477 0.795666
C -3.67463 4.33659 1.07711
C 5.52768 6.26977 4.62493
C -2.25066 5.41017 -0.535707
C -8.62483 7.11356 4.33197
C -6.58685 16.8409 -1.04249
C -4.6008 18.2559 -0.974444
C -5.45323 17.3167 -0.378067
C -12.5295 19.6465 3.56709
C -10.555 21.0445 3.64392
C -11.6861 20.5903 2.96253
H -0.610513 3.12771 3.19998
H 0.901917 4.26233 -0.629776
H -5.01062 12.876 0.410677
H -10.0743 18.0494 3.18395
H -3.93227 4.1284 2.09941
H -1.40162 6.03545 -0.763471
H -5.21476 16.9138 0.596215
H -9.91209 21.7758 3.17562
N -25.7465 32.5527 2.35815
N 1.23079 4.66037 1.98826
N -6.41942 5.03639 3.85553
N -5.59353 5.7421 3.0703
N -6.89814 11.4535 -0.783149
N -3.56379 15.0134 -0.272899
N -11.9165 17.0395 1.51505
N -11.3221 18.1174 0.979011
N 9.7194 2.85871 0.389456
N -1.8502 5.8033 1.85785
N -8.2709 7.33315 2.98228
N -7.24497 8.13081 2.64735
N -7.40869 15.8376 -0.406552
N -3.43699 18.7273 -0.274972
N -12.0015 21.0809 1.66814
N -11.2397 21.9979 1.04783
O -10.4901 32.387 -0.462959
O -25.4539 32.2861 3.59655
O -26.9089 32.188 1.90402
O 2.05602 5.37304 1.27611
O 1.28087 4.76142 3.28294
O -13.125 14.8208 2.54974
O -6.28328 10.7185 0.0964062
O -8.13194 11.1668 -1.08067
O -2.77355 15.9005 -0.804514
O -3.4099 14.7145 0.984814
O 4.84037 5.73405 3.64139
O 9.0803 3.03589 1.50451
O 9.39637 1.8399 -0.353182
O -0.886526 6.63967 1.59497
O -2.11793 5.53105 3.10124
O -13.6026 19.2457 2.92365
O -7.39215 15.6963 0.886003
O -13.7093 16.8957 4.79815
O -2.62006 19.5704 -0.837568
O -3.17908 18.3191 0.933962
68
 Atoms. Timestep: 30183
C -0.737997 2.64962 1.08504
C 0.853731 4.47593 0.972089
C 0.164113 3.4992 1.70052
C -0.941793 2.78038 -0.294489
C 0.630773 4.59956 -0.394703
C -0.218565 3.77198 -1.03063
C -9.97441 15.2301 4.22003
C -7.91402 16.5134 4.25971
C -3.67901 13.7496 -0.910206
C -10.2344 15.7181 2.92648
C -8.19062 16.9937 2.97554
C -9.34646 16.6038 2.30904
C 10.7662 4.27078 0.202362
C -2.31254 5.70831 1.25968
C -3.2507 4.68288 1.33243
C 11.0353 4.89516 -1.02925
C -2.05203 6.32149 0.0287915
C -7.85803 7.80349 4.66482
C -5.68482 16.3022 -0.3145
C -3.63747 17.613 -0.458753
C -4.49284 16.7566 0.243361
C -11.1608 18.62 4.16577
C -9.12973 19.9138 4.03578
C -10.3169 19.4826 3.45765
H 0.309621 3.40587 2.75765
H 1.14994 5.35167 -0.965839
H -3.48448 13.3869 0.0843529
H -7.51135 17.6788 2.49605
H -3.45229 4.19307 2.27134
H -1.32398 7.10647 -0.044453
H -4.22025 16.4355 1.23203
H -8.48159 20.5714 3.48067
N -22.028 31.223 1.86964
N 1.77228 5.34853 1.62318
N -5.642 5.76534 3.36422
N -5.06393 6.72428 2.62086
N -5.73655 12.4425 -0.894256
N -1.59261 15.0412 -0.833145
N -9.63922 17.0928 1.0157
N -8.82732 17.9465 0.365654
N 9.80514 3.2199 0.320597
N -1.62099 6.12496 2.43352
N -7.60182 8.41701 3.41245
N -6.70038 9.39874 3.26652
N -6.51926 15.3968 0.444633
N -2.40864 18.0516 0.128066
N -10.6795 19.8937 2.15561
N -9.90924 20.7132 1.41597
O 12.9416 1.96807 -0.913913
O -21.5184 30.7656 2.96326
O -23.2187 30.8414 1.55021
O 2.41672 6.26079 0.952088
O 1.97633 5.24422 2.89994
O -11.2952 15.329 2.27236
O -5.32478 11.6442 0.0271876
O -12.1335 14.3412 4.63974
O -5.83787 17.6636 4.34588
O -1.38684 14.6902 0.399932
O 5.24794 6.433 3.67411
O 9.14946 3.01051 1.42707
O 9.63108 2.37993 -0.644516
O -0.783089 7.11481 2.38063
O -1.81843 5.52281 3.57121
O -12.2548 18.2054 3.58623
O -6.0981 14.8653 1.54425
O -7.7128 15.0988 0.0638495
O -1.57866 18.7966 -0.547859
O -2.09498 17.7078 1.33823
68
 Atoms. Timestep: 40226
C -0.0735701 3.30732 0.390789
C 1.40604 5.24567 0.258109
C 0.927307 4.11898 0.93922
C -0.959209 3.54061 -0.869921
C -3.40505 6.8637 4.47107
C -4.40544 6.06623 3.90535
C -7.33996 15.0335 3.47194
C -5.35743 16.4542 3.62376
C -6.14677 15.4038 4.10797
C -7.75757 15.7413 2.32888
C -5.78453 17.1431 2.4822
C -6.97509 16.7885 1.83172
C -3.22802 4.74954 0.690011
C -1.47404 5.8146 2.00235
C -2.44001 4.8148 1.84023
C -3.04213 5.71164 -0.320642
C -1.29995 6.75919 0.98773
C -2.07689 6.71345 -0.172072
C -4.36411 15.3477 0.379578
C -2.49961 16.9344 0.38286
C -3.17983 15.8476 0.946282
C -4.8828 15.969 -0.775316
C -3.02691 17.5311 -0.767956
C -8.48652 18.3662 4.11773
H 1.31158 3.87891 1.91262
H -3.04287 7.72831 3.93824
H -1.5665 13.569 -0.469135
H -5.18468 17.952 2.09353
H -2.58486 4.07346 2.60868
H -0.545453 7.52652 1.09162
H -2.78596 15.3873 1.83375
H -6.78334 19.6728 4.24332
N -18.1192 30.4519 1.12611
N 2.42858 6.074 0.84013
N -4.95745 6.38346 2.64406
N -4.54587 7.45035 1.94529
N -8.12466 13.953 3.99894
N -4.13091 16.8239 4.29157
N -7.40357 17.4727 0.667269
N -6.70087 18.4781 0.133075
N 9.83687 3.69606 0.563414
N -0.664641 5.86257 3.18495
N -6.16771 8.97228 4.25803
N -5.24032 9.93584 4.33519
N -5.02007 14.2168 0.9822
N -1.27286 17.4213 0.968991
N -9.01586 18.9601 2.94416
N -8.41541 19.989 2.33446
O 8.26672 4.18882 4.03619
O -17.3619 29.8841 2.01812
O -19.3318 30.0102 0.98343
O 2.87249 7.12305 0.211236
O 2.92666 5.78945 2.00342
O -8.85473 15.3988 1.68541
O -3.29506 11.7276 -0.725514
O -9.40758 13.8798 3.82279
O -3.36203 17.7553 3.81029
O 0.501816 14.9188 -0.0726161
O 5.99316 7.00446 4.06603
O 9.31238 3.15361 1.62545
O 9.54805 3.21939 -0.613183
O 0.18489 6.82909 3.36944
O -0.767222 4.9398 4.09299
O -10.2499 16.8286 4.1073
O -4.37738 13.4569 1.81968
O -6.26064 13.9247 0.743042
O -0.604276 18.3891 0.41593
O -0.805922 16.8931 2.06192
68
 Atoms. Timestep: 50443
C 0.554041 3.73746 -0.301237
C 1.72671 5.87197 -0.0996436
C 1.57266 4.52414 0.254286
C -3.97352 5.51686 3.89555
C -2.80892 7.63044 4.10407
C -3.82968 6.86037 3.53364
C -5.81068 14.8645 2.81301
C -4.18089 16.5354 3.53724
C -4.71959 15.2433 3.60773
C -6.35457 15.8014 1.90975
C -4.74582 17.4556 2.6472
C -5.82579 17.0954 1.83321
C -2.56224 4.9604 0.970706
C -0.64374 5.59082 2.34489
C -1.57689 4.63916 1.91357
C -2.61657 6.27635 0.464255
C -0.708125 6.88865 1.8232
C -1.68977 7.23692 0.889661
C -3.57983 14.5909 0.421629
C -2.12755 16.4785 0.980837
C -2.51823 15.1431 1.15434
C -4.25578 15.4033 -0.513534
C -2.81432 17.2676 0.0516712
C -3.68015 17.1932 -0.697095
H 2.2352 4.08508 0.982712
H -2.70153 8.66611 3.82142
H -4.31265 14.5354 4.31236
H -4.33585 18.4517 2.57851
H -1.52947 3.6335 2.3021
H 0.00628214 7.63064 2.14556
H -2.00566 14.5307 1.87892
H -2.52121 18.2956 -0.0948422
N -15.7858 30.1797 0.100612
N 2.7729 6.67067 0.485228
N -4.72633 7.42219 2.59194
N -4.63057 8.70375 2.20194
N -6.35817 13.5381 2.94828
N -3.06757 16.912 4.36922
N -6.38978 18.0216 0.921191
N -5.91566 19.2727 0.799092
N 9.85574 3.94282 0.544108
N 0.369077 5.23776 3.30445
N -1.75707 8.5506 0.360672
N -0.887956 9.50767 0.726254
N -3.93744 13.2076 0.624196
N -1.04017 17.0309 1.74716
N -8.20771 18.7285 3.48195
N -7.87382 20.0095 3.2543
O 8.431 4.79649 3.32748
O -14.7456 29.5092 0.500149
O -3.60717 29.612 0.163788
O 2.93965 7.9131 0.132649
O 3.5776 6.16478 1.37359
O -7.34386 15.4663 1.1099
O -5.62193 12.5636 3.39764
O -7.61071 13.3004 2.69354
O -2.59662 18.1263 4.3446
O 1.14026 14.8458 0.0315268
O 9.79409 6.62724 -0.389009
O -6.59037 30.7301 1.3024
O 9.31586 3.97993 -0.639386
O 1.24872 6.11407 3.69664
O 0.421775 4.03676 3.80412
O -8.88124 16.1144 3.88288
O -3.07788 12.3721 1.13034
O -5.12999 12.7708 0.344202
O -0.702022 18.2824 1.61959
O -0.370714 16.2894 2.58083
68
 Atoms. Timestep: 60606
C 1.11218 4.38933 -0.315423
C 2.06215 6.62387 -0.0884422
C 2.06842 5.25341 0.220849
C -3.49535 6.33749 3.86284
C -2.5565 8.55358 4.10429
C -3.51122 7.70196 3.54529
C -5.71862 14.4282 2.72432
C -4.21383 16.1718 3.5167
C -4.62657 14.8343 3.49791
C -6.39943 15.3871 1.93821
C -4.90929 17.1114 2.73918
C -5.99685 16.7274 1.95047
C -2.29869 5.97375 0.737705
C -0.372694 6.41379 2.16823
C -1.3063 5.52923 1.62541
C -2.36843 7.34594 0.411156
C -0.449729 7.7698 1.82237
C -1.44583 8.24233 0.956819
C -3.27474 14.8305 0.418526
C -1.78387 16.5951 1.21273
C -2.18968 15.2549 1.19822
C -3.96371 15.7936 -0.365256
C -2.48109 17.5276 0.430929
C -3.56424 17.1359 -0.35691
H 2.80627 4.8561 0.903365
H -2.57779 9.60835 3.86255
H -4.10531 14.1024 4.10194
H -4.6032 18.1454 2.74527
H -1.24712 4.47939 1.87841
H 0.260122 8.46482 2.2367
H -1.65833 14.5349 1.80663
H -2.18368 18.5643 0.438378
N -14.8431 29.5826 0.046024
N 3.03888 7.50693 0.484703
N -4.49832 8.19984 2.65693
N -4.53419 9.48899 2.27848
N -6.10546 13.0432 2.73644
N -3.09536 16.5744 4.32406
N -6.69574 17.677 1.1562
N -6.35686 18.9752 1.13361
N 9.21772 5.0178 0.173941
N 0.654317 5.93506 3.05917
N -1.54473 9.62424 0.645679
N -0.67223 10.519 1.1279
N -3.64483 13.4321 0.435052
N -0.669577 17.0073 2.02145
N -7.90608 19.5133 3.91041
N -7.56884 20.8123 3.88214
O 8.04629 5.54325 3.30632
O -13.7233 28.9948 0.354376
O -15.9589 28.9121 0.19074
O 3.02726 8.78119 0.210979
O 3.95667 7.04658 1.2847
O -7.38837 15.0318 1.15312
O -5.23865 12.1231 3.03424
O -7.34241 12.687 2.51909
O -2.30501 17.4556 4.34907
O 1.19258 14.2746 -0.0142153
O 9.10882 7.80858 -0.377234
O 8.99371 3.88041 0.779788
O 5.08525 6.62716 4.0485
O 1.49697 6.75924 3.59856
O 0.772065 4.66722 3.32892
O -8.61599 16.8826 3.93729
O -2.90473 12.5551 1.05218
O -4.72933 13.0113 -0.142584
O -0.299062 18.2534 2.04752
O -0.0094796 16.1428 2.74131
68
 Atoms. Timestep: 70609
C 1.11179 4.45094 -0.0872986
C 1.80521 6.78836 -0.307392
C 1.99359 5.49826 0.214583
C -3.625 6.12531 4.09659
C -2.93844 8.4406 3.89055
C -3.81909 7.40462 3.55672
C -6.05791 14.3229 2.45984
C -4.34241 15.8502 3.30438
C -4.90915 14.5691 3.22609
C -6.6395 15.3934 1.74554
C -4.94337 16.8984 2.59357
C -6.08429 16.6782 1.8145
C -2.1619 6.67351 0.907104
C -0.159323 6.88276 2.30067
C -1.19943 6.11315 1.76403
C -2.07654 8.05401 0.605398
C -0.0872432 8.2431 1.96948
C -1.03835 8.83268 1.1304
C -3.34315 14.5553 0.320938
C -1.53426 15.8913 1.29796
C -2.20025 14.6679 1.13133
C -3.82061 15.7179 -0.333008
C -2.02893 17.0243 0.638364
C -3.16411 16.9457 -0.173087
H 2.81697 5.30948 0.883905
H -3.0971 9.42581 3.47841
H -4.46098 13.7559 3.77496
H -4.52044 17.8895 2.64279
H -1.25445 5.0631 2.00727
H 0.710669 8.84687 2.36891
H -1.82585 13.7941 1.6415
H -1.52878 17.9724 0.756008
N -14.663 29.6778 0.501799
N 2.70723 7.8601 0.033183
N 7.49139 7.62682 2.67739
N 7.23397 8.83078 2.14753
N -6.60473 12.9878 2.4097
N -3.16547 16.0849 4.1015
N -6.68769 17.7359 1.08698
N -6.20926 18.987 1.11277
N 9.19387 5.83235 0.363021
N 0.820335 6.28514 3.1735
N -0.973699 10.2126 0.807512
N -0.0222859 11.0163 1.29658
N -3.9864 13.265 0.175341
N -0.362828 15.9815 2.13302
N -7.32176 19.517 4.21066
N -6.74386 20.7202 4.32141
O 7.95087 5.15809 3.76599
O -13.4674 29.2827 0.819262
O -15.6715 28.9253 0.827525
O 2.53069 9.05764 -0.440151
O 3.71344 7.65415 0.82531
O -7.68446 15.1947 0.978701
O -5.85237 11.9586 2.65881
O 4.53316 12.785 2.17587
O -2.63962 17.2697 4.17858
O 1.05603 13.6909 -0.295746
O -2.98376 8.63651 -0.141712
O 8.97866 4.64642 0.84977
O 8.96385 6.06362 -0.667529
O 1.74069 7.00876 3.73079
O 0.805743 5.00979 3.42186
O -8.53314 17.095 3.94256
O -3.44242 12.1943 0.671222
O -5.12054 13.1353 -0.43939
O 0.248892 17.1146 2.29981
O 0.108602 14.932 2.73672
68
 Atoms. Timestep: 80612
C 1.06403 4.80807 -0.0126437
C 1.55801 7.17565 -0.398626
C 1.85526 5.94508 0.209268
C -3.71414 6.32782 4.1601
C -3.22498 8.67367 3.79055
C -4.01771 7.54677 3.53739
C -6.0592 14.2642 2.30397
C -4.32953 15.7677 3.16686
C -4.91684 14.4955 3.08583
C -6.61389 15.3432 1.57971
C -4.9034 16.8228 2.44473
C -6.03792 16.6191 1.65248
C -2.1086 6.85198 1.07075
C -0.122863 7.1049 2.48282
C -1.15032 6.31664 1.94889
C -2.02583 8.22726 0.740009
C -0.0549898 8.45756 2.12528
C -0.996537 9.02221 1.25931
C -3.34223 14.2529 0.23171
C -1.4408 15.3123 1.36007
C -2.2315 14.1855 1.09073
C -3.66127 15.5003 -0.358966
C -1.77934 16.5329 0.760096
C -2.88195 16.6341 -0.0931557
H 2.69422 5.87334 0.881835
H -3.46696 9.61164 3.31389
H -4.48827 13.6778 3.64382
H -4.46403 17.8069 2.4959
H -1.20229 5.27318 2.21956
H 0.736362 9.07326 2.52042
H -1.98236 13.2466 1.55918
H -1.18387 17.4095 0.959293
N -14.6014 30.0447 0.660348
N 2.37067 8.33986 -0.14363
N 7.25296 7.61498 2.65323
N 6.9099 8.74747 2.02402
N -6.62555 12.9359 2.24889
N -3.15753 15.986 3.97633
N -6.61378 17.6849 0.914672
N -6.11295 18.9275 0.942235
N 9.23159 5.99095 0.5379
N 0.848939 6.53342 3.38016
N -0.925746 10.392 0.897901
N 0.0394341 11.1993 1.3532
N -4.11289 13.0542 -0.0280513
N -0.301632 15.2175 2.23854
N -6.90283 19.2915 4.34552
N -2.52311 18.9907 -0.489208
O 7.92486 5.27284 3.89846
O -13.378 29.7819 1.00644
O -15.5401 29.2261 1.03299
O -1.57522 10.9009 4.33776
O 3.38757 8.27647 0.658958
O -7.65411 15.1621 0.802012
O -5.90544 11.8994 2.55647
O 4.49996 12.7468 1.9527
O -2.61202 17.1623 4.05462
O 1.06222 13.5882 -0.406231
O -2.91928 8.78846 -0.0386536
O 9.08298 4.7793 0.98445
O 8.45907 6.37744 -0.429515
O 1.68797 7.29033 4.01667
O 0.90569 5.24989 3.57464
O -8.3586 17.0414 3.87055
O -3.69201 11.8956 0.383005
O -4.77751 12.9492 -0.664001
O 0.46327 16.2455 2.44804
O -0.0129297 14.1021 2.83945
68
 Atoms. Timestep: 90684
C 1.12197 5.3094 -0.156377
C -2.10438 9.19721 4.32564
C 1.8286 6.50708 0.0162559
C -3.5353 6.80427 3.94146
C -3.21614 9.14654 3.46881
C -3.92942 7.96189 3.26684
C -5.75754 14.3111 2.33512
C -4.06957 15.8729 3.18161
C -4.62611 14.5917 3.12172
C -6.33531 15.3502 1.57864
C -4.66534 16.8875 2.43071
C -5.78979 16.6371 1.631
C -1.66407 6.9798 1.24029
C 0.302133 7.40655 2.64862
C -0.680437 6.54348 2.14444
C -1.65224 8.33752 0.852133
C 0.296191 8.73515 2.23668
C -0.668929 9.2066 1.34515
C -3.14027 14.1421 0.318618
C -1.265 15.2474 1.45584
C -2.03665 14.1111 1.19229
C -3.47432 15.3679 -0.295525
C -1.61743 16.4452 0.834677
C -2.71372 16.5145 -0.0341112
H 2.67243 6.53282 0.690791
H -3.5196 10.0354 2.94972
H -4.17834 13.8054 3.70209
H -4.24759 17.8781 2.46696
H -0.677993 5.52144 2.4675
H 1.05846 9.40353 2.61279
H -1.77827 13.1908 1.67823
H -1.03491 17.3297 1.03203
N 1.53699 4.14472 0.56188
N 2.17482 8.89614 -0.451157
N 6.92181 7.90958 2.38222
N 6.51293 8.97529 1.69728
N -6.28996 12.9763 2.30623
N -2.90942 16.1415 3.99571
N -6.37973 17.6644 0.868703
N -5.90017 18.9106 0.881251
N 9.31216 6.03939 0.742885
N 1.2956 6.93257 3.5691
N -0.662894 10.549 0.930514
N 0.266431 11.4111 1.35824
N -3.8867 12.9317 0.0669708
N -0.133848 15.1877 2.34779
N -6.61209 19.2504 4.31516
N -2.37141 18.852 -0.44878
O 7.76593 5.69149 3.72362
O -12.9158 29.9201 0.909073
O -14.9992 29.2363 0.967893
O -1.73419 11.5004 3.91236
O 3.20771 8.94072 0.338535
O -7.3651 15.1214 0.795361
O -5.55541 11.9672 2.67213
O 4.44329 12.7556 1.98365
O -2.39477 17.3291 4.05056
O 1.1995 13.676 -0.290025
O -2.56692 8.80645 0.0390447
O 9.29668 4.82471 1.17651
O 8.45737 6.36175 -0.178589
O 1.88177 8.3185 4.28704
O 1.50309 5.65455 3.7046
O -8.03616 16.9762 3.84665
O -3.44342 11.7877 0.492281
O -5.015 12.9486 -0.568841
O 0.6305 16.2158 2.52355
O 0.144731 14.1052 2.99238
68
 Atoms. Timestep: 100000
C 1.01339 5.28536 -0.262507
C -2.17206 9.19167 4.2384
C 1.75193 6.47282 -0.0958778
C -3.67374 6.82726 3.86868
C -3.30931 9.18615 3.41134
C -4.05757 8.01248 3.21836
C -5.99578 14.3473 2.28039
C -4.26459 15.94 3.00367
C -4.82982 14.6511 3.01493
C -6.59186 15.3735 1.50297
C -4.88344 16.9401 2.23559
C -6.03814 16.6656 1.48528
C -1.26202 6.77371 1.62304
C 0.736255 7.48191 2.86941
C -0.185111 6.49112 2.49009
C -1.39793 8.09788 1.1262
C 0.582248 8.77937 2.35978
C -0.474171 9.09282 1.49084
C -3.18581 14.1889 0.330863
C -1.26787 15.3526 1.34553
C -2.0448 14.1944 1.16137
C -3.54985 15.3968 -0.320696
C -1.65246 16.5331 0.688636
C -2.78546 16.563 -0.139078
H 2.61811 6.46692 0.552561
H -3.61152 10.0966 2.9136
H -4.36329 13.8788 3.61053
H -4.46223 17.9363 2.21705
H -0.0648013 5.4903 2.88134
H 1.29198 9.54787 2.63579
H -1.75935 13.2877 1.67248
H -1.06897 17.4338 0.823211
N 1.43452 4.08251 0.422914
N 2.14532 8.87935 -0.543729
N 6.7602 7.99932 2.36753
N 6.36098 9.08684 1.68782
N -6.54451 13.0042 2.33405
N -3.07016 16.231 3.76775
N -6.65799 17.6761 0.699839
N -6.17949 18.9299 0.639308
N 9.76543 5.71308 1.27157
N 1.81983 7.17347 3.7726
N -0.624814 10.407 0.971384
N 0.234915 11.394 1.2719
N -3.94015 12.9581 0.16076
N -0.09615 15.33 2.19537
N -6.72369 19.2816 4.16862
N -2.48778 18.9051 -0.677049
O 7.58681 5.72954 3.65831
O -13.0127 29.8694 0.797012
O -15.1093 29.0963 0.756468
O -1.75437 11.5146 3.84982
O 3.20408 8.88744 0.214648
O -7.65716 15.1318 0.767645
O -5.84823 12.0261 2.83772
O 4.19923 12.7462 1.93857
O -2.55161 17.4258 3.76963
O 1.06895 13.7796 -0.508373
O -2.39151 8.42399 0.325965
O 9.85327 4.54133 1.83347
O 8.83738 5.88535 0.375982
O 2.49757 8.12591 4.34549
O 2.13412 5.93898 4.04266
O -8.1491 16.9738 3.86025
O -3.49764 11.8374 0.654495
O -5.07097 12.9304 -0.483734
O 0.667472 16.3789 2.3084
O 0.22481 14.2599 2.86453
68
 Atoms. Timestep: 100730
C 1.02416 5.3807 -0.256441
C -2.23759 9.26667 4.23148
C 1.75694 6.56269 -0.0918213
C -3.72572 6.91092 3.86779
C -3.36867 9.25838 3.40642
C -4.10962 8.08774 3.21735
C -6.06065 14.3617 2.28185
C -4.34925 15.9542 3.00034
C -4.90437 14.6698 3.01656
C -6.65705 15.3767 1.49996
C -4.96576 16.945 2.22904
C -6.11156 16.6636 1.4788
C -1.26903 6.85067 1.64019
C 0.713917 7.58249 2.86907
C -0.193106 6.58467 2.50335
C -1.41998 8.16254 1.13288
C 0.546614 8.86886 2.35224
C -0.510642 9.16324 1.48622
C -3.237 14.2075 0.328875
C -1.33686 15.3686 1.3435
C -2.10577 14.2147 1.16143
C -3.60001 15.4071 -0.326165
C -1.71756 16.542 0.684863
C -2.84244 16.5679 -0.144772
H 2.61923 6.55976 0.555468
H -3.67075 10.164 2.90821
H -4.43818 13.9046 3.61505
H -4.54989 17.9381 2.20801
H -0.061885 5.59177 2.90007
H 1.24606 9.64291 2.61959
H -1.82248 13.3134 1.67504
H -1.13792 17.4393 0.81929
N 1.44572 4.18542 0.429103
N 2.14028 8.95566 -0.544069
N 6.68467 8.07052 2.36859
N 6.28915 9.1568 1.68946
N -6.60057 13.0238 2.33944
N -3.16486 16.2508 3.76408
N -6.73083 17.6641 0.688847
N -6.25369 18.9146 0.628338
N -2.18385 5.7841 1.30267
N 1.79938 7.29137 3.76517
N -0.676035 10.4658 0.957583
N 0.174879 11.4575 1.25192
N -3.98406 12.9819 0.160226
N -0.174757 15.3486 2.19502
N -6.84696 19.2731 4.15009
N -6.16008 20.4158 4.28122
O 7.51157 5.81448 3.65825
O -13.0696 29.757 0.804384
O -15.1611 28.9814 0.761058
O -1.83236 11.5801 3.83765
O 3.19683 8.96514 0.214755
O 4.21246 15.1293 0.762528
O -5.90123 12.0544 2.85299
O 4.11997 12.762 1.94075
O -2.65455 17.4455 3.76144
O 1.04215 13.8104 -0.498334
O -2.41553 8.47253 0.332446
O 9.84418 4.6229 1.87838
O 8.81597 5.94125 0.406736
O 2.18984 8.03215 4.30145
O 2.10732 6.06396 4.06377
O -8.26145 16.9757 3.84132
O -3.54055 11.8663 0.660458
O -5.10996 12.9532 -0.488372
O 0.582123 16.3976 2.30959
O 0.144277 14.2803 2.86411
68
 Atoms. Timestep: 110835
C 1.29855 5.71898 -0.118911
C -2.27183 9.60342 4.22551
C 1.97745 6.94749 -0.00207136
C -3.64884 7.14648 3.95451
C -3.41358 9.49534 3.41151
C -4.09307 8.27595 3.27234
C -6.25726 14.2647 2.23571
C -4.61797 15.9802 2.91104
C -5.11919 14.6647 2.96566
C -6.89186 15.2248 1.41332
C -5.28117 16.908 2.09591
C -6.4052 16.5385 1.35034
C -1.03739 7.09753 1.81752
C 0.940916 8.01993 2.96985
C 0.0819383 6.94654 2.67319
C -1.27038 8.37628 1.25871
C 0.66995 9.271 2.40079
C -0.422759 9.45501 1.54991
C -3.44178 14.1885 0.242527
C -1.58796 15.4757 1.24511
C -2.31287 14.2792 1.08598
C -3.841 15.3582 -0.450255
C -2.01638 16.6113 0.543027
C -3.13186 16.5608 -0.296594
H 2.84024 7.01886 0.631646
H -3.75883 10.3669 2.88973
H -4.62426 13.9496 3.59063
H -4.9094 17.917 2.04439
H 0.286172 5.98252 3.09339
H 1.31829 10.1014 2.622
H -2.00031 13.4107 1.62228
H -1.47394 17.5335 0.656525
N 1.89403 4.58345 0.602347
N 2.23044 9.34678 -0.53665
N 6.52868 8.17532 2.4373
N 6.07525 9.21436 1.72564
N -6.72794 12.9105 2.34373
N -3.46271 16.3638 3.66488
N -7.05403 17.4797 0.528033
N -6.63468 18.749 0.425898
N -1.87826 5.95492 1.56155
N 2.0699 7.83443 3.82038
N -0.675833 10.7185 0.984172
N 0.105216 11.7765 1.22985
N -4.12641 12.9281 0.113136
N -0.445559 15.532 2.10189
N -7.36029 19.2159 3.90317
N -6.72273 20.3889 4.00462
O 7.47719 6.0121 3.78888
O -12.6504 29.5446 0.993041
O -14.6986 28.6378 0.966936
O -2.01457 11.9204 3.77897
O 3.2988 9.43554 0.189776
O 3.83407 14.8956 0.688632
O -5.98993 11.9997 2.89776
O 3.83387 12.5728 1.96257
O -3.01699 17.5802 3.62435
O 0.973413 13.9909 -0.511706
O -2.28696 8.57596 0.470505
O -17.3879 29.8661 2.20311
O 8.93777 6.00461 0.678235
O 2.91511 8.79889 4.01114
O 6.08772 5.18932 -0.500503
O -8.67699 16.8399 3.65073
O -3.63682 11.8534 0.639825
O -5.24647 12.8311 -0.525177
O 0.247714 16.6222 2.20798
O -0.0857825 14.4964 2.78622
68
 Atoms. Timestep: 120935
C 1.69969 6.14043 0.147954
C 1.74887 8.47534 -0.535006
C 2.28812 7.41084 0.194566
C -3.40146 7.38526 4.16481
C -3.35571 9.70401 3.50126
C -3.94455 8.43518 3.42833
C -6.50784 14.176 2.13359
C -4.9489 15.9749 2.73041
C -5.38533 14.65 2.84638
C -7.18798 15.0578 1.26861
C -5.65239 16.834 1.87824
C -6.76479 16.3802 1.14554
C -0.725088 7.39721 2.05976
C 1.2066 8.45385 3.15721
C 0.404516 7.33321 2.91113
C -1.03994 8.63164 1.45498
C 0.872645 9.66257 2.55662
C -0.243451 9.75817 1.70977
C -3.70168 14.1493 0.104387
C -1.94764 15.6311 0.996363
C -2.57124 14.3788 0.92382
C -8.16822 16.679 4.1716
C -2.47348 16.6765 0.231656
C -7.55688 17.9342 4.23854
H 3.15513 7.58122 0.819741
H -3.77732 10.5103 2.93895
H -4.85717 13.9878 3.5087
H -5.32758 17.8531 1.78114
H 0.672041 6.3998 3.36103
H 1.47992 10.5316 2.75129
H -2.17703 13.5769 1.51213
H -2.00408 17.6435 0.277568
N 2.27874 5.08625 0.935859
N 2.35385 9.77866 -0.466233
N 6.61476 8.20107 2.60926
N 6.06067 9.16429 1.8609
N -6.92758 12.8076 2.30492
N -3.80096 16.4452 3.47306
N -7.46654 17.2481 0.274914
N -7.10515 18.5279 0.117498
N -1.51679 6.20855 1.83711
N 2.36939 8.35654 4.00368
N -0.585688 10.9857 1.1064
N 0.132756 12.0945 1.33244
N -4.29366 12.8319 0.0631135
N -0.791393 15.84 1.83967
N -8.08066 18.9919 3.46145
N -7.53469 20.2158 3.48136
O 7.75238 6.19796 4.06073
O 3.58754 5.15357 1.32727
O -14.0826 28.3265 1.36353
O -2.15547 12.2398 3.76454
O 3.45898 9.9758 0.204467
O 3.48958 14.6446 0.54817
O -6.12369 11.9502 2.84713
O 3.55105 12.422 2.00669
O -3.41604 17.6799 3.40015
O -2.95388 15.9971 4.22308
O -2.08275 8.75081 0.663891
O -16.9231 29.3769 2.54401
O 9.26848 6.15823 0.917606
O 3.28265 9.29659 4.00818
O 6.51043 5.86073 -0.0702583
O -9.20458 16.5136 3.37292
O -3.68138 11.8328 0.608112
O 6.24946 12.6126 -0.50482
O -0.238275 17.0079 1.93983
O -0.27816 14.8646 2.52006
68
 Atoms. Timestep: 130987
C 2.03726 6.10531 0.291084
C 2.05756 8.449 -0.405889
C 2.60282 7.38847 0.330577
C 0.909641 5.88219 -0.525925
C -3.04335 9.66329 3.61352
C -3.61605 8.38678 3.5454
C -6.46942 14.2586 2.17593
C -5.19268 16.3027 2.59839
C -5.42592 14.9386 2.82198
C -7.28823 14.9726 1.27385
C -6.02127 16.9917 1.70336
C -7.06396 16.3348 1.03967
C -0.485851 7.48387 2.07919
C 1.39382 8.60162 3.1689
C 0.627552 7.45591 2.93309
C -0.831909 8.71048 1.46224
C 1.03477 9.80119 2.54681
C -0.0732148 9.86289 1.69738
C -3.94573 14.0357 0.0493695
C -2.30418 15.6272 0.92682
C -2.84603 14.3357 0.870093
C -8.47774 16.5258 4.07853
C -2.88089 16.637 0.146089
C -7.94705 17.8203 4.13045
H 3.46156 7.56484 0.959163
H -3.47094 10.4696 3.04085
H -4.79727 14.402 3.51418
H -5.85336 18.042 1.52109
H 0.918701 6.52705 3.39881
H 1.612 10.6916 2.73615
H -2.41201 13.5569 1.47528
H -2.47454 17.6358 0.179438
N -12.9815 29.1529 1.08351
N 2.64863 9.76201 -0.348431
N 6.90027 8.13735 2.73697
N 6.30918 9.10811 2.02354
N -6.67469 12.8546 2.4437
N -4.12087 16.9844 3.27913
N -7.90146 17.0275 0.128877
N -7.73518 18.332 -0.139495
N -1.23737 6.26738 1.85729
N 2.54336 8.54199 4.02611
N -0.447033 11.0807 1.07388
N 0.25068 12.2123 1.25308
N -4.46218 12.6842 0.0208289
N -1.17313 15.9112 1.77282
N -8.52932 18.8393 3.33339
N -8.06487 20.0981 3.33709
O -3.59121 6.1359 4.18774
O -11.731 29.2056 1.43628
O -13.7152 28.1827 1.54538
O -1.87903 12.225 3.85934
O 3.75811 9.96221 0.298739
O 3.39683 14.3687 0.623549
O -5.73145 12.1415 2.98464
O 3.82944 12.2882 2.22647
O -3.90077 18.2511 3.07553
O -3.35149 16.3469 4.11254
O -1.8782 8.80018 0.675733
O -16.6083 29.3117 2.58085
O 9.53464 6.17807 0.906734
O 3.45204 9.47004 3.9729
O 6.676 6.09629 0.04121
O -9.48883 16.2932 3.27265
O -3.78751 11.7086 0.556593
O 6.03561 12.4085 -0.507654
O -0.689834 17.1167 1.8558
O -0.607142 14.9657 2.46506
68
 Atoms. Timestep: 140992
C 2.11132 6.06872 0.368549