68
 Atoms. Timestep: 0
C 8.06854 0.755173 23.3386
C 7.43437 -1.0293 21.8383
C 7.48089 -0.491722 23.1245
C 8.60979 1.46428 22.2664
C 7.97546 -0.319864 20.7661
C 8.56308 0.926946 20.9801
C 3.40328 1.96629 7.69932
C 2.76911 0.181817 6.19902
C 2.81563 0.7194 7.48528
C 3.94453 2.6754 6.62719
C 3.3102 0.891258 5.12683
C 3.89782 2.13807 5.34083
C 12.0666 0.998524 22.6989
C 11.4324 -0.785953 21.1986
C 11.479 -0.24837 22.4849
C 12.6079 1.70763 21.6268
C 11.9735 -0.076512 20.1264
C 12.5611 1.1703 20.3404
C 3.812 4.03875 1.3103
C 13.0013 -1.94226 31.9916
C 3.22435 2.79186 1.09626
C 4.35325 4.74786 0.238168
C 13.5424 -1.23282 30.9194
C 14.13 0.013993 31.1334
H 13.6582 -1.05279 23.9537
H 7.9524 -0.716467 19.7533
H 8.99297 0.158333 8.31449
H 3.28714 0.494655 4.11409
H 11.0543 -0.809438 23.3141
H 11.9505 -0.473115 19.1137
H 2.7997 2.23079 1.92547
H 13.5193 -1.62942 29.9067
N 8.08695 1.25433 24.6772
N 6.83678 -2.29881 21.6201
N 9.08751 1.5929 19.8835
N 9.49826 2.11482 19.024
N 3.42169 2.46545 9.03799
N 2.48888 5.80529 5.98086
N 4.42225 2.80402 4.24426
N 4.833 3.32595 3.38473
N 12.085 1.49768 24.0376
N 10.8349 -2.05546 20.9804
N 6.48358 1.83625 19.2438
N 6.89433 2.35818 18.3843
N 3.83041 4.53791 2.64897
N 12.4037 -3.21176 31.7734
N 14.6544 0.679946 30.0368
N 15.0652 1.20187 29.1773
O 9.15363 2.6145 22.4545
O 14.1828 0.557291 25.5836
O 8.609 2.36994 24.8936
O 7.12351 4.12872 20.4553
O 12.9582 -2.92076 22.5982
O 4.48837 3.82562 6.81524
O 9.51754 1.76841 9.94437
O 3.94374 3.58107 9.25433
O 2.45825 5.33984 4.81606
O 8.61025 5.18334 6.95899
O 13.1517 2.85785 21.8148
O 11.5789 0.800642 24.9439
O 12.6071 2.6133 24.2539
O 10.8042 -2.5209 19.8156
O 10.3542 -2.67741 21.9586
O 4.89709 5.89808 0.426224
O 3.32427 3.84087 3.55535
O 4.35247 5.65352 2.86531
O 12.3731 -3.67721 30.6086
O 2.09963 0.362824 0.569974
68
 Atoms. Timestep: 154
C 2.85283 -4.43357 22.1452
C 4.09114 -5.86111 20.6588
C 3.43139 -5.64759 21.8548
C 2.95122 -3.40492 21.2227
C 4.12904 -4.84072 19.6958
C 3.56421 -3.59006 19.9898
C -0.252941 0.117748 9.50571
C 1.25216 -1.34037 8.24177
C 0.451083 -1.10077 9.35421
C -0.102624 1.12433 8.52179
C 1.41043 -0.319719 7.30099
C 0.7846 0.921641 7.46709
C 6.33836 -4.18881 21.4502
C 7.51453 -5.61799 19.8743
C 6.88988 -5.42175 21.1133
C 6.44959 -3.15618 20.5151
C 7.53862 -4.58231 18.9413
C 6.98511 -3.34687 19.255
C -0.84507 3.71596 4.31375
C 8.36699 -9.09133 28.7747
C -0.185203 2.48285 4.07261
C -0.676496 4.77275 3.41242
C 8.52261 -8.01128 27.8993
C 7.84149 -6.79409 28.1221
H 9.88621 -6.4373 22.5913
H 4.66213 -4.99653 18.7789
H 6.88175 -1.88085 10.0969
H 2.04988 -0.482612 6.45112
H 6.87655 -6.22041 21.8422
H 8.11623 -4.69427 18.0482
H -0.342188 1.65001 4.73613
H 9.17205 -8.11804 27.0463
N 2.07618 -4.31823 23.3347
N 4.71231 -7.12431 20.4642
N 3.58254 -2.51226 19.0692
N 4.07766 -2.64991 17.8306
N -1.07233 0.320805 10.6736
N -4.97192 4.83547 8.06277
N 1.10481 2.00248 6.62243
N 2.10991 1.92733 5.75948
N 5.65867 -4.00966 22.7162
N 8.19974 -6.84146 19.6202
N 0.534933 -2.24207 18.3672
N 1.03107 -2.35621 17.1273
N -1.65263 3.89855 5.48184
N 9.14204 -10.3118 28.61
N 8.00023 -5.69352 27.2759
N 8.62834 -5.85347 26.1233
O 2.44125 -2.25993 21.5224
O 8.08736 -5.4054 23.7982
O 1.59001 -3.18086 23.7488
O -1.32118 0.0189102 19.361
O 11.1944 -7.97721 21.4463
O -0.745606 2.27383 8.60926
O 5.37951 -0.602861 11.5942
O -1.73678 1.42619 10.8664
O -4.49978 4.52039 6.89532
O 1.6695 3.97931 9.0424
O -0.327991 -1.95355 20.8673
O 5.5152 -5.01223 23.5376
O 5.10197 -2.87625 23.0386
O 8.92552 -7.01822 18.5635
O 8.35245 -7.65594 20.608
O -1.3738 5.89366 3.50567
O -1.94335 2.88228 6.22929
O -1.98812 5.09047 5.89558
O 9.92243 -10.4722 27.5876
O 1.47942 0.163476 3.75512
68
 Atoms. Timestep: 10700
C 2.11489 -3.12192 21.9451
C 2.7837 -5.04056 20.6262
C 2.52484 -4.45251 21.8538
C 2.00965 -2.36136 20.7684
C 2.63245 -4.2852 19.4705
C 2.29486 -2.9457 19.5373
C 5.33569 0.0398515 11.1862
C 1.28937 -0.919164 10.3573
C 6.22477 -1.04369 11.0605
C -0.504885 1.24002 10.5069
C 1.57896 0.29169 9.71633
C 0.680812 1.36186 9.78175
C 5.58378 -4.01083 19.5959
C 5.91996 -5.15352 17.4711
C 5.86047 -5.17705 18.8722
C 5.36488 -2.82169 18.872
C 5.54297 -3.99984 16.7844
C 5.27114 -2.82791 17.4812
C 0.1451 3.28716 6.13573
C 1.97341 1.70111 5.87183
C 0.656376 1.9825 6.24742
C 6.55178 -6.5863 26.0636
C 8.39214 -8.13978 25.9052
C 7.85463 -6.88184 25.6524
H 2.56681 -5.0535 22.7215
H 2.82019 -4.73073 18.5095
H 5.9961 -1.98267 11.5459
H 2.52787 0.417691 9.21077
H 6.09877 -6.0896 19.3979
H 5.57266 -3.98312 15.7067
H 0.071456 1.21313 6.73545
H 9.38514 -8.36901 25.5507
N 1.64668 -2.6171 23.1974
N 3.25167 -6.38198 20.5318
N 2.15216 -2.19693 18.3554
N 2.2379 -2.75436 17.1384
N 4.18146 -0.0797844 12.0525
N 2.2575 -1.9836 10.379
N 0.977833 2.60708 9.18707
N 2.14664 2.83888 8.58189
N 5.55199 -4.04138 21.0445
N 0.628829 0.797326 16.7592
N 4.95707 -1.62788 16.799
N 4.73475 -1.60665 15.4767
N -1.03809 3.63074 6.87811
N 2.56585 0.422282 6.13102
N 2.4684 -5.92672 24.9407
N 3.69733 -6.20751 24.4751
O 1.47216 -1.16579 20.7929
O 1.10674 -3.4347 24.0503
O 7.33611 -8.38427 23.3532
O 9.39923 -6.95493 19.3696
O 3.70907 -7.0253 21.5689
O -1.29523 2.28562 10.5914
O 4.02517 -1.13492 12.7946
O 3.31133 0.878131 12.1732
O 3.31232 -1.93963 9.61812
O -3.75746 4.08408 11.2399
O 5.33271 -1.67752 19.4874
O 5.82364 -5.13599 21.6912
O 5.17775 -3.00648 21.7368
O 0.496764 0.693608 15.4694
O 1.56474 0.116196 17.3349
O 6.04281 -5.41039 25.7765
O -1.53523 2.77265 7.71385
O -1.48972 4.84389 6.91544
O 9.41258 -10.6884 26.3112
O 1.96829 -0.451582 6.88561
68
 Atoms. Timestep: 20729
C 0.913854 -3.39458 21.9261
C 1.87387 -5.23188 20.668
C 1.44626 -4.68578 21.8702
C 0.858452 -2.6201 20.7578
C 1.79533 -4.45436 19.5142
C 1.31775 -3.14308 19.5604
C -0.719479 1.36437 11.9958
C 1.31202 0.210923 11.2781
C 0.0918618 0.220769 11.955
C -0.308429 2.50071 11.2713
C 1.68276 1.33184 10.547
C 0.889006 2.47839 10.5551
C 4.95389 -4.70711 18.314
C 0.114857 1.11603 16.4183
C 5.66747 -5.76885 17.743
C 4.58663 -3.61416 17.5024
C 5.6059 -4.69215 15.6069
C 4.8607 -3.63696 16.144
C 0.774728 2.71663 6.90748
C 2.64798 1.22185 6.46533
C 1.41691 1.4839 7.07001
C 6.85379 -7.20974 26.0886
C 8.5381 -8.80306 25.6502
C 7.92553 -7.56227 25.4866
H 1.48141 -5.28678 22.7565
H 2.13147 -4.86125 18.5818
H -0.21529 -0.665675 12.4749
H 2.62177 1.33234 10.0166
H 6.02097 -6.58707 18.3497
H -0.0228143 2.17773 14.582
H 0.972077 0.733312 7.70059
H 9.49173 -8.99604 25.1829
N 0.36719 -2.9122 23.156
N 8.37664 -6.57112 20.6137
N 1.19112 -2.36959 18.3886
N 1.52313 -2.859 17.1891
N -1.91325 1.36095 12.8126
N 2.20828 -0.908843 11.3875
N 1.29963 3.63412 9.85788
N -3.5212 3.66899 9.20111
N 4.72759 -4.70495 19.7313
N 1.03704 0.147499 15.9224
N 4.47235 -2.52949 15.3574
N 4.79176 -2.45359 14.0658
N -0.448642 2.97941 7.6248
N 3.33694 -0.0120463 6.71675
N 2.55076 -6.55796 24.7061
N 3.78128 -6.71399 24.1978
O 0.209464 -1.4765 20.7383
O 0.0297079 -3.74503 24.0903
O 6.12403 -8.48491 23.354
O 8.68331 -7.11392 19.4776
O 8.64382 -7.22788 21.6982
O -1.03121 3.59727 11.2567
O 3.84081 0.378137 13.6291
O -2.74916 2.35891 12.8136
O 3.30801 -0.944626 10.6957
O 2.00298 -1.83281 12.2762
O 4.1067 -2.5059 18.0213
O 5.02045 -5.75195 20.4392
O 4.29691 -3.64577 20.3531
O 0.890196 -0.334334 14.7335
O 2.12845 -0.110976 16.5757
O 6.11419 -6.14521 25.8804
O -1.07382 2.01408 8.22868
O -0.837729 4.19916 7.85947
O -1.45056 6.59038 6.15892
O -3.04659 6.00359 7.60459
68
 Atoms. Timestep: 30869
C 2.30329 -3.12278 21.3894
C 3.15299 -5.06937 20.2074
C 2.79701 -4.43505 21.3991
C 2.18298 -2.4364 20.1699
C 3.0686 -4.34864 19.0102
C 2.60023 -3.03379 18.9859
C -0.250975 1.28626 12.3324
C 1.86439 0.233198 11.6538
C 0.608963 0.17214 12.2784
C 0.112125 2.43885 11.6086
C 2.21956 1.40301 10.9844
C 1.35422 2.50273 10.9656
C 6.1809 -4.53928 18.4141
C 1.1878 1.1155 16.4437
C 6.77157 -5.66169 17.8096
C 5.82503 -3.4584 17.5822
C 6.60207 -4.64486 15.6274
C 5.95424 -3.54413 16.1984
C 0.792236 2.87505 7.62747
C 2.64057 1.34355 7.20867
C 1.3756 1.60992 7.74865
C 8.63703 -6.85399 25.193
C 10.4397 -8.39998 24.7256
C 9.88123 -7.12283 24.6081
H 2.84471 -4.97673 22.3299
H 3.35422 -4.81853 18.0865
H 0.314125 -0.740592 12.7551
H 3.18764 1.46546 10.5027
H 7.126 -6.4783 18.4061
H 0.997579 2.15339 14.578
H 0.870213 0.846131 8.33054
H 11.4065 -8.60216 24.2841
N 1.81122 -2.54927 22.6023
N 9.82153 -6.41952 20.205
N 2.46942 -2.32871 17.7668
N 2.7959 -2.8856 16.5926
N -1.41424 1.25076 13.1969
N 2.8053 -0.854285 11.7638
N 1.73355 3.69457 10.3146
N -3.26584 3.78717 9.68873
N 6.04068 -4.47422 19.8562
N 2.07822 0.134209 15.9229
N 5.50858 -2.46045 15.41
N 5.51923 -2.5244 14.0738
N -0.42135 3.1623 8.34946
N 3.31276 0.128334 7.55795
N 4.3904 -6.07044 23.9514
N 5.62429 -6.21466 23.4455
O 1.54782 -1.29171 20.1177
O 1.34685 -3.32259 23.53
O 7.59135 -8.05699 22.7546
O 10.1799 -6.97539 19.0941
O 9.99854 -7.07995 21.3077
O -0.711936 3.45612 11.5018
O 4.61325 0.268815 14.0306
O -2.25513 2.24059 13.2727
O 3.94544 -0.813985 11.1339
O 2.57985 -1.84769 12.5736
O 5.44351 -2.32003 18.0924
O 6.32375 -5.50553 20.5932
O 5.59168 -3.4095 20.4569
O 1.70086 -0.646247 14.9528
O 3.29058 0.0446463 16.3912
O 8.11828 -5.65892 25.0506
O -1.11259 2.19172 8.87272
O -0.683861 4.37607 8.73056
O -1.63682 6.71565 7.18556
O 2.80176 -0.663736 8.44679
68
 Atoms. Timestep: 40924
C 2.27907 -3.35387 21.3964
C 9.33207 -5.32732 20.2872
C 2.72663 -4.67654 21.4446
C 2.25251 -2.68018 20.1678
C 3.16041 -4.62359 19.0716
C 2.71589 -3.30145 19.0059
C -0.16595 1.26892 12.3805
C 1.98711 0.357098 11.6407
C 0.753802 0.208525 12.2852
C 0.100587 2.4454 11.6507
C 2.26741 1.57079 11.0078
C 1.33002 2.61013 11.0062
C 6.24095 -4.74525 18.3978
C 1.3619 0.910663 16.4513
C 6.83074 -5.86813 17.7998
C 5.93941 -3.64338 17.5678
C 6.77146 -4.82572 15.6302
C 6.12744 -3.71444 16.1861
C 0.721306 3.24484 7.54284
C 2.52726 1.65071 7.18536
C 1.25697 1.95764 7.67636
C 8.62988 -6.54856 25.09
C 10.3945 -8.15429 24.7011
C 9.88516 -6.86214 24.5524
H 8.8105 -5.22051 22.3673
H 3.49588 -5.10641 18.1691
H 0.524359 -0.731809 12.7422
H 3.22356 1.70995 10.5287
H 1.33688 0.0895429 18.3918
H 1.25449 1.95803 14.5906
H 0.729022 1.22046 8.26541
H 11.3725 -8.38018 24.3113
N 1.65868 -2.78108 22.5496
N 9.80358 -6.68354 20.3374
N 2.63893 -2.61734 17.766
N 2.99896 -3.19412 16.608
N -1.29629 1.15598 13.2811
N 2.97429 -0.69297 11.6846
N 1.62014 3.84459 10.3832
N -3.40842 4.03022 9.70408
N 6.0563 -4.70676 19.8366
N 2.24811 -0.0881518 15.9608
N 5.74441 -2.61041 15.3914
N 5.90446 -2.61806 14.0654
N -0.470379 3.58131 8.27663
N 3.17561 0.435932 7.59125
N 4.48744 -5.84704 23.9271
N 5.70506 -6.08819 23.4197
O 1.62655 -1.53553 20.0796
O 6.90828 -3.46004 23.1624
O 7.58819 -8.30214 22.81
O 4.37754 -0.48631 19.2503
O 9.97133 -7.30443 21.4666
O -0.794368 3.4015 11.561
O 4.74873 0.105909 14.0361
O -2.10969 2.14906 13.4936
O 4.06181 -0.610712 10.9766
O 2.83085 -1.71258 12.4802
O 5.58223 -2.49666 18.0802
O 6.31419 -5.75461 20.5613
O 5.60404 -3.64751 20.444
O 1.91187 -0.819549 14.9472
O 3.43415 -0.211736 16.4773
O 8.15221 -5.33725 24.9301
O -1.19377 2.63716 8.79802
O -0.647129 4.78945 8.71489
O 4.43137 0.245346 7.33307
O 2.60201 -0.357138 8.44243
68
 Atoms. Timestep: 50767
C 2.26307 -3.37807 21.4031
C 9.32461 -5.35619 20.3045
C 2.70824 -4.70179 21.4572
C 2.24738 -2.70722 20.1731
C 3.15797 -4.65678 19.0868
C 2.71522 -3.33393 19.015
C -0.16946 1.27894 12.3885
C 1.98916 0.385288 11.6401
C 0.76103 0.227893 12.2929
C 0.0815794 2.45457 11.6526
C 2.25707 1.60173 11.0082
C 1.30995 2.63231 11.009
C 6.24328 -4.76526 18.3797
C 1.38439 0.876874 16.4494
C 6.83893 -5.89262 17.7943
C 5.94869 -3.66863 17.5405
C 6.80294 -4.86358 15.6188
C 6.15255 -3.74836 16.1616
C 0.714386 3.27818 7.54326
C 2.52328 1.68446 7.18882
C 1.25144 1.99108 7.67852
C 8.62327 -6.51585 25.0897
C 10.3906 -8.12092 24.7061
C 9.88052 -6.82979 24.5552
H 8.78167 -5.24376 22.3794
H 3.4984 -5.14288 18.188
H 0.543929 -0.711151 12.7564
H 3.21065 1.74941 10.5267
H 1.33771 0.0681618 18.3946
H 1.29633 1.91316 14.5824
H 0.723516 1.25414 8.26744
H 11.3706 -8.34645 24.3202
N 1.63298 -2.79974 22.5492
N 9.80049 -6.71193 20.3614
N 2.6453 -2.65464 17.7722
N 3.01302 -3.23598 16.6184
N -1.29525 1.15871 13.2946
N 2.98371 -0.658991 11.674
N 1.59038 3.87172 10.3916
N -3.44088 4.06756 9.71046
N 6.04795 -4.71632 19.8167
N 2.2734 -0.12796 15.9725
N 5.78084 -2.64688 15.358
N 5.99615 -2.64237 14.04
N -0.47789 3.6164 8.27681
N 3.17423 0.470297 7.59377
N 4.48541 -5.81739 23.9292
N 5.69911 -6.06655 23.4156
O 1.62748 -1.55916 20.0795
O 6.84294 -3.45403 23.1273
O 7.58936 -8.32623 22.8223
O 4.38307 -0.519416 19.2789
O 9.96673 -7.32679 21.4939
O -0.82301 3.40229 11.5652
O 4.75135 0.10088 14.0393
O -2.10498 2.1521 13.5222
O 4.06896 -0.566269 10.9635
O 2.84594 -1.68773 12.4586
O 5.58613 -2.5174 18.0421
O 6.30153 -5.75844 20.551
O 5.59251 -3.65194 20.4131
O 1.95198 -0.853434 14.9499
O 3.45462 -0.252334 16.4999
O 8.14496 -5.30449 24.928
O -1.20374 2.67471 8.79827
O -0.653498 4.82456 8.71539
O 4.43282 0.285381 7.34256
O 2.59765 -0.329628 8.43609
68
 Atoms. Timestep: 50791
C 2.29776 -3.38219 21.4049
C 9.34889 -5.36127 20.3053
C 2.73926 -4.70646 21.4585
C 2.27994 -2.71103 20.1754
C 3.18201 -4.6623 19.0872
C 2.74252 -3.33851 19.0161
C -0.149122 1.27768 12.3868
C 2.00663 0.383311 11.6377
C 0.779287 0.226056 12.2905
C 0.102636 2.45341 11.6511
C 2.27607 1.59964 11.0059
C 1.33038 2.63087 11.007
C 6.2632 -4.76772 18.3811
C 1.41694 0.871958 16.4489
C 6.85366 -5.89605 17.7944
C 5.96895 -3.67058 17.5421
C 6.81414 -4.86675 15.6185
C 6.16837 -3.75037 16.1624
C 0.725477 3.27877 7.53921
C 2.53071 1.6839 7.18433
C 1.26018 1.99123 7.67401
C 8.65727 -6.52173 25.0936
C 10.4216 -8.12806 24.7093
C 9.91321 -6.83638 24.5585
H 8.81253 -5.24827 22.3814
H 3.51861 -5.14895 18.1874
H 0.561458 -0.713146 12.7545
H 3.2293 1.74678 10.524
H 1.37467 0.0625981 18.3942
H 1.32709 1.90796 14.5812
H 0.731863 1.25469 8.26364
H 11.4007 -8.35373 24.3231
N 1.67216 -2.80418 22.5525
N 9.82073 -6.71755 20.3625
N 2.67071 -2.65866 17.7738
N 3.03325 -3.24043 16.6187
N -1.27313 1.15731 13.2938
N 2.99897 -0.661808 11.6718
N 1.61136 3.87035 10.3898
N -3.41874 4.06604 9.70779
N 6.07259 -4.71917 19.8183
N 2.3029 -0.133642 15.9709
N 5.79773 -2.64822 15.359
N 6.00955 -2.64503 14.0403
N -0.464839 3.61741 8.27401
N 3.17933 0.469323 7.58987
N 4.51937 -5.82395 23.9326
N 5.73298 -6.07303 23.418
O 1.6624 -1.56165 20.0836
O 6.88083 -3.45821 23.1313
O 7.61111 -8.33018 22.8272
O 4.42052 -0.527301 19.2793
O 9.98862 -7.33205 21.4949
O -0.80083 3.40158 11.5643
O 4.77247 0.0992099 14.038
O -2.08093 2.1516 13.5233
O 4.08389 -0.569661 10.9609
O 2.85939 -1.69019 12.4563
O 5.61186 -2.51885 18.0444
O 6.32554 -5.7622 20.5517
O 5.62131 -3.6541 20.4164
O 1.97781 -0.858612 14.9495
O 3.48432 -0.259409 16.4974
O 8.18084 -5.3096 24.9329
O -1.1904 2.6756 8.79563
O -0.63567 4.8249 8.71554
O 4.43786 0.284132 7.33962
O 2.60163 -0.329767 8.43238
68
 Atoms. Timestep: 59874
C 2.28948 -3.39258 21.4086
C 9.34528 -5.37383 20.313
C 2.73052 -4.71734 21.4643
C 2.27656 -2.72232 20.1785
C 3.18011 -4.67665 19.094
C 2.74091 -3.35248 19.0206
C -0.151658 1.28313 12.3899
C 2.00698 0.394137 11.6378
C 0.781421 0.234898 12.2948
C 0.09461 2.45783 11.6512
C 2.27157 1.61102 11.0052
C 1.32217 2.63936 11.0073
C 6.26394 -4.77367 18.3727
C 1.42685 0.857431 16.4482
C 6.85791 -5.90451 17.7926
C 5.9723 -3.67983 17.5288
C 6.82666 -4.88379 15.613
C 6.17834 -3.76488 16.1506
C 0.724312 3.29191 7.54043
C 2.53223 1.69762 7.18659
C 1.26055 2.00459 7.67584
C 8.6558 -6.50875 25.0939
C 10.4228 -8.11405 24.7125
C 9.9129 -6.82332 24.5597
H 8.7999 -5.25826 22.3868
H 3.51925 -5.16497 18.1959
H 0.568712 -0.702664 12.7629
H 3.22399 1.76067 10.5222
H 1.37634 0.0564268 18.3968
H 1.34301 1.8865 14.5771
H 0.732436 1.26801 8.26502
H 11.4037 -8.33891 24.3291
N 1.65961 -2.81217 22.5532
N 9.82 -6.72983 20.3728
N 2.67187 -2.67496 17.7769
N 3.037 -3.25924 16.6238
N -1.27523 1.16131 13.2984
N 3.00231 -0.648971 11.6685
N 1.59974 3.88088 10.3926
N -3.43133 4.08074 9.71054
N 6.0678 -4.71867 19.8093
N 2.31382 -0.151479 15.9763
N 5.8125 -2.66435 15.3428
N 6.04946 -2.6557 14.0285
N -0.466836 3.63084 8.27494
N 3.18237 0.482901 7.59069
N 4.51945 -5.81228 23.9317
N 5.73129 -6.06432 23.4151
O 1.66286 -1.57074 20.0849
O 6.8494 -3.45319 23.1147
O 7.61255 -8.34154 22.8354
O 4.42354 -0.541444 19.2914
O 9.98714 -7.34213 21.5065
O -0.811716 3.4037 11.5661
O 4.76939 0.100209 14.0384
O -2.08168 2.15584 13.5326
O 4.08755 -0.552936 10.9586
O 2.86359 -1.68162 12.4475
O 5.61262 -2.52563 18.0254
O 6.31837 -5.75862 20.5477
O 5.61406 -3.65105 20.4011
O 1.99484 -0.874783 14.9514
O 3.49321 -0.278248 16.5074
O 8.1783 -5.29699 24.9322
O -1.19362 2.68975 8.79608
O -0.638273 4.83807 8.71694
O 4.44209 0.300118 7.34378
O 2.60292 -0.320449 8.42783
68
 Atoms. Timestep: 59881
C 2.29803 -3.39503 21.4091
C 9.34964 -5.37594 20.3135
C 2.73746 -4.71975 21.4649
C 2.28486 -2.72462 20.1789
C 3.18499 -4.67867 19.0944
C 2.74737 -3.35449 19.0209
C -0.145035 1.28218 12.3895
C 2.0116 0.393413 11.6373
C 0.786608 0.233992 12.2943
C 0.101986 2.45692 11.6507
C 2.27719 1.61025 11.0047
C 1.32909 2.63862 11.0068
C 6.26768 -4.77545 18.373
C 1.43624 0.855723 16.4483
C 6.85974 -5.90616 17.7927
C 5.97667 -3.68152 17.529
C 6.82784 -4.8851 15.613
C 6.18137 -3.76626 16.1506
C 0.729063 3.29181 7.53946
C 2.53452 1.69767 7.1856
C 1.26376 2.00452 7.67491
C 8.66299 -6.5118 25.0949
C 10.4277 -8.11698 24.7134
C 9.91917 -6.82623 24.5607
H 8.80627 -5.26081 22.3875
H 3.52271 -5.16675 18.1961
H 0.573183 -0.703584 12.7626
H 3.22925 1.76004 10.5215
H 1.38656 0.0543174 18.397
H 1.35212 1.88504 14.5769
H 0.735342 1.26789 8.26416
H 11.4079 -8.34171 24.3299
N 1.66992 -2.81488 22.5538
N 9.82273 -6.73196 20.3733
N 2.67802 -2.6767 17.7772
N 3.04146 -3.26084 16.6238
N -1.2678 1.16004 13.2981
N 3.0056 -0.64976 11.6681
N 1.6074 3.8802 10.3921
N -3.42313 4.08016 9.70977
N 6.07294 -4.72083 19.8096
N 2.32158 -0.153181 15.9763
N 5.81619 -2.66557 15.3428
N 6.05203 -2.65678 14.0283
N -0.461022 3.63054 8.2741
N 3.18338 0.482897 7.58979
N 4.52676 -5.81507 23.9327
N 5.73819 -6.0671 23.4158
O 1.67243 -1.57292 20.0854
O 6.85877 -3.45599 23.1155
O 7.61569 -8.34394 22.8362
O 4.43349 -0.543777 19.2917
O 9.9901 -7.34438 21.507
O -0.803328 3.4029 11.5656
O 4.77546 0.0990036 14.0382
O -2.073 2.15483 13.5324
O 4.09041 -0.553554 10.958
O 2.86636 -1.68241 12.4471
O 5.61885 -2.52735 18.0256
O 6.32284 -5.76082 20.5482
O 5.62094 -3.6531 20.4017
O 2.00091 -0.87612 14.9513
O 3.50118 -0.280009 16.5074
O 8.18681 -5.29994 24.9332
O -1.18832 2.68945 8.79531
O -0.630539 4.83777 8.71622
O 4.44285 0.30017 7.34278
O 2.60382 -0.320508 8.42699
68
 Atoms. Timestep: 67587
C 2.29462 -3.39847 21.4104
C 9.34832 -5.38082 20.316
C 2.73402 -4.72364 21.4668
C 2.28313 -2.72829 20.1803
C 3.18429 -4.6843 19.0966
C 2.7465 -3.3596 19.0226
C -0.146095 1.2849 12.3904
C 2.01242 0.397102 11.6371
C 0.787657 0.237451 12.2954
C 0.0988632 2.45922 11.6507
C 2.27617 1.61406 11.0044
C 1.32623 2.64184 11.0069
C 6.26771 -4.77729 18.3699
C 1.44012 0.850239 16.4477
C 6.86124 -5.90933 17.7917
C 5.97747 -3.68433 17.5243
C 6.83265 -4.89125 15.6108
C 6.18484 -3.7711 16.1464
C 0.728257 3.29652 7.53975
C 2.53577 1.702 7.18601
C 1.26416 2.00908 7.6751
C 8.66191 -6.50721 25.0952
C 10.4288 -8.11262 24.7144
C 9.91894 -6.822 24.5611
H 8.80134 -5.2643 22.3892
H 3.5232 -5.17334 18.1987
H 0.576242 -0.699532 12.7653
H 3.22825 1.76422 10.5208
H 1.38739 0.0516899 18.3973
H 1.35866 1.87703 14.5751
H 0.735932 1.2726 8.2643
H 11.4099 -8.33722 24.3318
N 1.66453 -2.81736 22.5543
N 9.8224 -6.73699 20.3768
N 2.67822 -2.68256 17.7786
N 3.04268 -3.26778 16.6258
N -1.26897 1.16279 13.2996
N 3.00786 -0.645718 11.667
N 1.60316 3.8841 10.3933
N -3.42755 4.08519 9.71099
N 6.07087 -4.72023 19.8062
N 2.32645 -0.160128 15.9777
N 5.82152 -2.67078 15.3371
N 6.06705 -2.66035 14.0243
N -0.462528 3.63565 8.27456
N 3.18557 0.487045 7.58973
N 4.52633 -5.8114 23.9325
N 5.73746 -6.06444 23.4147
O 1.67178 -1.57541 20.0867
O 6.84692 -3.45354 23.1097
O 7.61517 -8.348 22.84
O 4.43474 -0.549905 19.296
O 9.98925 -7.34856 21.5109
O -0.807803 3.40467 11.5664
O 4.77459 0.100724 14.0382
O -2.07416 2.15786 13.5359
O 4.09329 -0.548675 10.9576
O 2.86853 -1.67962 12.4442
O 5.61865 -2.52911 18.019
O 6.31999 -5.75951 20.5461
O 5.61779 -3.65143 20.3964
O 2.00839 -0.882846 14.9521
O 3.50517 -0.287663 16.5102
O 8.1848 -5.29526 24.9335
O -1.18965 2.69476 8.79555
O -0.632515 4.84254 8.71781
O 4.44569 0.305042 7.34435
O 2.60509 -0.317577 8.42495
68
 Atoms. Timestep: 67594
C 2.30225 -3.40076 21.4108
C 9.35199 -5.38264 20.3164
C 2.74032 -4.72583 21.4672
C 2.2905 -2.73046 20.1807
C 3.18879 -4.68607 19.0969
C 2.75231 -3.36143 19.0229
C -0.14026 1.28398 12.3901
C 2.01644 0.396482 11.6367
C 0.792278 0.236638 12.2951
C 0.105244 2.45829 11.6503
C 2.28098 1.61332 11.0039
C 1.33213 2.64107 11.0064
C 6.27103 -4.77878 18.3701
C 1.44822 0.848523 16.4477
C 6.86295 -5.91063 17.7918
C 5.98127 -3.68577 17.5244
C 6.83375 -4.89223 15.6108
C 6.18748 -3.77221 16.1464
C 0.732298 3.29641 7.53893
C 2.53768 1.70215 7.18519
C 1.26691 2.0091 7.67434
C 8.66814 -6.50999 25.096
C 10.433 -8.11519 24.7151
C 9.92435 -6.8246 24.5619
H 8.80679 -5.26659 22.3898
H 3.5265 -5.17481 18.1989
H 0.580323 -0.700309 12.765
H 3.23268 1.76362 10.5203
H 1.39629 0.049575 18.3975
H 1.36648 1.87552 14.575
H 0.738523 1.27259 8.26359
H 11.4135 -8.33963 24.3326
N 1.67366 -2.81996 22.5549
N 9.82474 -6.73876 20.3773
N 2.6837 -2.68411 17.779
N 3.04675 -3.26916 16.6258
N -1.26235 1.16153 13.2994
N 3.01076 -0.646369 11.6667
N 1.60955 3.88333 10.3929
N -3.42029 4.08452 9.71034
N 6.07541 -4.72214 19.8065
N 2.3332 -0.161804 15.9776
N 5.82466 -2.67176 15.3371
N 6.06924 -2.6612 14.0242
N -0.457568 3.63531 8.27388
N 3.18642 0.487187 7.589
N 4.53284 -5.81393 23.9333
N 5.7437 -6.06695 23.4152
O 1.68017 -1.57748 20.0871
O 6.85494 -3.4562 23.1104
O 7.61811 -8.34998 22.8407
O 4.44325 -0.552243 19.2962
O 9.99182 -7.35043 21.5113
O -0.800614 3.40382 11.566
O 4.7797 0.0995967 14.038
O -2.06656 2.15685 13.5358
O 4.09579 -0.549144 10.9571
O 2.87107 -1.68019 12.4438
O 5.62398 -2.53065 18.0193
O 6.324 -5.7614 20.5465
O 5.62375 -3.65326 20.3969
O 2.01378 -0.884062 14.952
O 3.51202 -0.289391 16.5101
O 8.19208 -5.29797 24.9344
O -1.18498 2.69449 8.79491
O -0.625953 4.84214 8.71726
O 4.44633 0.30526 7.34352
O 2.60593 -0.317431 8.42426
68
 Atoms. Timestep: 75080
C 2.29936 -3.40367 21.4121
C 9.35085 -5.38695 20.3187
C 2.73741 -4.72918 21.469
C 2.28903 -2.7336 20.182
C 3.18812 -4.69104 19.0989
C 2.75155 -3.3659 19.0245
C -0.141352 1.28633 12.3909
C 2.01704 0.399579 11.6366
C 0.793006 0.239584 12.2961
C 0.102399 2.46026 11.6503
C 2.28 1.61656 11.0035
C 1.32957 2.64381 11.0064
C 6.27094 -4.7804 18.3673
C 1.4515 0.84351 16.4471
C 6.86404 -5.91353 17.7909
C 5.98193 -3.68825 17.5202
C 6.83787 -4.89779 15.6088
C 6.19043 -3.77659 16.1426
C 0.731626 3.30062 7.53911
C 2.5388 1.70595 7.18545
C 1.26724 2.0131 7.6744
C 8.66734 -6.50582 25.0961
C 10.434 -8.11129 24.7159
C 9.92431 -6.82078 24.5622
H 8.80258 -5.26959 22.3914
H 3.52682 -5.18069 18.2013
H 0.582773 -0.696845 12.7675
H 3.23177 1.76715 10.5196
H 1.39673 0.0471267 18.3976
H 1.37219 1.8683 14.5734
H 0.738952 1.27669 8.26361
H 11.4155 -8.33562 24.3342
N 1.66903 -2.82199 22.5553
N 9.82452 -6.74322 20.3803
N 2.68388 -2.68928 17.7802
N 3.04775 -3.27533 16.6277
N -1.26356 1.16402 13.3008
N 3.01262 -0.642943 11.6658
N 1.60591 3.8867 10.3937
N -3.42409 4.08888 9.71129
N 6.07357 -4.72148 19.8035
N 2.33741 -0.168037 15.979
N 5.82926 -2.6765 15.332
N 6.08233 -2.66453 14.0207
N -0.4588 3.63993 8.27424
N 3.18838 0.490863 7.58893
N 4.53282 -5.81057 23.9331
N 5.7433 -6.06451 23.4141
O 1.67961 -1.57965 20.0883
O 6.84448 -3.45387 23.1052
O 7.61772 -8.35329 22.844
O 4.44445 -0.557656 19.3
O 9.99126 -7.35411 21.5149
O -0.804566 3.40532 11.5667
O 4.77881 0.101206 14.0384
O -2.06773 2.1595 13.5388
O 4.09823 -0.54501 10.9569
O 2.87275 -1.67791 12.4414
O 5.62395 -2.53211 18.0134
O 6.32154 -5.76009 20.5447
O 5.62104 -3.65164 20.3921
O 2.02034 -0.890279 14.9527
O 3.51553 -0.29605 16.5127
O 8.19056 -5.29371 24.9346
O -1.18615 2.69919 8.79516
O -0.627457 4.84649 8.71865
O 4.44881 0.309524 7.34473
O 2.60714 -0.314709 8.42273
68
 Atoms. Timestep: 75090
C 2.30631 -3.40566 21.4124
C 9.35425 -5.38846 20.3191
C 2.74318 -4.73105 21.4694
C 2.29573 -2.7355 20.1824
C 3.19225 -4.69254 19.0992
C 2.75684 -3.36746 19.0247
C -0.136103 1.28551 12.3905
C 2.02066 0.399065 11.6363
C 0.797184 0.238886 12.2958
C 0.108121 2.4594 11.6499
C 2.28433 1.61589 11.0031
C 1.33486 2.64312 11.0059
C 6.27401 -4.78163 18.3675
C 1.45878 0.841963 16.4472
C 6.86568 -5.91455 17.7909
C 5.9854 -3.68945 17.5204
C 6.83893 -4.89854 15.6088
C 6.19286 -3.77747 16.1427
C 0.735227 3.30053 7.53832
C 2.54051 1.70612 7.18466
C 1.2697 2.01314 7.67366
C 8.67306 -6.50822 25.0969
C 10.438 -8.11347 24.7166
C 9.9293 -6.82301 24.5629
H 8.80758 -5.27155 22.3919
H 3.52987 -5.1819 18.2015
H 0.586477 -0.697486 12.7672
H 3.23577 1.76662 10.5191
H 1.40476 0.0452164 18.3978
H 1.37921 1.86691 14.5733
H 0.741277 1.27672 8.26293
H 11.4189 -8.33764 24.3349
N 1.6773 -2.82428 22.5559
N 9.82674 -6.74468 20.3808
N 2.68886 -2.69061 17.7806
N 3.05147 -3.27649 16.6277
N -1.2576 1.16287 13.3006
N 3.01526 -0.643482 11.6655
N 1.61159 3.88597 10.3934
N -3.41758 4.08824 9.71066
N 6.07775 -4.72311 19.8037
N 2.34351 -0.169551 15.9789
N 5.83212 -2.67728 15.332
N 6.08434 -2.66521 14.0206
N -0.454396 3.63961 8.2736
N 3.18913 0.491044 7.58824
N 4.53875 -5.81274 23.9339
N 5.74906 -6.06667 23.4146
O 1.6872 -1.58146 20.0887
O 6.85177 -3.45621 23.1058
O 7.62049 -8.35491 22.8446
O 4.45214 -0.559772 19.3002
O 9.99369 -7.35563 21.5152
O -0.798156 3.40454 11.5663
O 4.78342 0.100226 14.0382
O -2.06093 2.15861 13.5387
O 4.10053 -0.545378 10.9564
O 2.87508 -1.67834 12.441
O 5.62879 -2.53341 18.0136
O 6.32525 -5.76167 20.545
O 5.62646 -3.65318 20.3926
O 2.02522 -0.891317 14.9527
O 3.52172 -0.297601 16.5126
O 8.1972 -5.29606 24.9354
O -1.18197 2.69896 8.79454
O -0.621611 4.8461 8.71813
O 4.44942 0.309784 7.34394
O 2.60791 -0.314488 8.42206
68
 Atoms. Timestep: 82674
C 2.30364 -3.4083 21.4136
C 9.3532 -5.3924 20.3212
C 2.74049 -4.7341 21.471
C 2.29437 -2.73834 20.1835
C 3.19161 -4.69706 19.1011
C 2.75612 -3.37152 19.0262
C -0.137115 1.28765 12.3913
C 2.02116 0.401801 11.6362
C 0.797781 0.241542 12.2968
C 0.105561 2.46119 11.6498
C 2.28342 1.61877 11.0028
C 1.33255 2.64555 11.0059
C 6.27389 -4.78306 18.3649
C 1.46176 0.837375 16.4467
C 6.86663 -5.91717 17.7901
C 5.98597 -3.69167 17.5165
C 6.84265 -4.90363 15.607
C 6.19553 -3.78148 16.1391
C 0.734666 3.30435 7.53846
C 2.54155 1.70957 7.18489
C 1.27004 2.01676 7.67369
C 8.6724 -6.5044 25.097
C 10.439 -8.1099 24.7173
C 9.92931 -6.8195 24.5632
H 8.80371 -5.27429 22.3935
H 3.53014 -5.18726 18.2037
H 0.588623 -0.694339 12.7697
H 3.23492 1.76972 10.5184
H 1.40513 0.043021 18.398
H 1.3844 1.86027 14.5719
H 0.741694 1.2804 8.26292
H 11.4207 -8.33396 24.3364
N 1.67305 -2.8261 22.5563
N 9.82655 -6.74874 20.3837
N 2.689 -2.69531 17.7817
N 3.05235 -3.28213 16.6294
N -1.25873 1.16523 13.3019
N 3.01685 -0.640451 11.6649
N 1.6084 3.88899 10.3941
N -3.42094 4.09213 9.71149
N 6.07603 -4.7224 19.8009
N 2.34733 -0.175225 15.9802
N 5.83628 -2.68166 15.3272
N 6.09626 -2.66831 14.0173
N -0.455428 3.64381 8.2739
N 3.19095 0.494379 7.58816
N 4.53882 -5.80966 23.9336
N 5.74871 -6.06441 23.4136
O 1.68668 -1.58343 20.0898
O 6.84217 -3.45398 23.101
O 7.62013 -8.35788 22.8477
O 4.45329 -0.564707 19.3037
O 9.99319 -7.359 21.5185
O -0.80164 3.40594 11.5668
O 4.78256 0.1018 14.0386
O -2.06199 2.16109 13.5414
O 4.10266 -0.541734 10.9564
O 2.87646 -1.67637 12.439
O 5.62875 -2.53468 18.0081
O 6.32297 -5.76037 20.5434
O 5.62397 -3.6516 20.3882
O 2.03119 -0.897089 14.9534
O 3.52492 -0.303584 16.515
O 8.1959 -5.29215 24.9356
O -1.18298 2.70319 8.79474
O -0.622865 4.85006 8.71939
O 4.45163 0.313613 7.34493
O 2.60909 -0.312005 8.42076
68
 Atoms. Timestep: 82681
C 2.31013 -3.41 21.4142
C 9.35644 -5.39366 20.3217
C 2.74589 -4.73569 21.4717
C 2.30063 -2.73997 20.1841
C 3.19547 -4.69832 19.1015
C 2.76107 -3.37285 19.0265
C -0.132235 1.28695 12.3908
C 2.02454 0.401374 11.6357
C 0.801671 0.240949 12.2963
C 0.110887 2.46044 11.6493
C 2.28747 1.61819 11.0021
C 1.33749 2.64495 11.0052
C 6.27679 -4.78407 18.3652
C 1.46854 0.836037 16.4468
C 6.8682 -5.91801 17.7902
C 5.98925 -3.69267 17.5166
C 6.84368 -4.90424 15.607
C 6.19783 -3.78219 16.1392
C 0.738015 3.30427 7.53736
C 2.54315 1.70973 7.18378
C 1.27232 2.0168 7.67264
C 8.67781 -6.50643 25.0982
C 10.4427 -8.11174 24.7183
C 9.93406 -6.82138 24.5642
H 8.80845 -5.27595 22.3942
H 3.53299 -5.18826 18.204
H 0.592067 -0.694873 12.7693
H 3.23866 1.76926 10.5177
H 1.41263 0.0413641 18.3983
H 1.39095 1.85906 14.5717
H 0.743849 1.28045 8.26195
H 11.424 -8.33566 24.3374
N 1.68078 -2.82806 22.5571
N 9.8287 -6.74996 20.3843
N 2.69366 -2.69643 17.7821
N 3.05582 -3.2831 16.6294
N -1.25318 1.16422 13.3016
N 3.01932 -0.640906 11.6644
N 1.6137 3.88835 10.3935
N -3.41491 4.09156 9.71063
N 6.07997 -4.72377 19.8013
N 2.35302 -0.176546 15.9801
N 5.83899 -2.68229 15.3272
N 6.09816 -2.66887 14.0171
N -0.451342 3.64352 8.27296
N 3.19164 0.494552 7.58715
N 4.54437 -5.81149 23.9346
N 5.75413 -6.06625 23.4144
O 1.69377 -1.58497 20.0904
O 6.84903 -3.45599 23.1019
O 7.62277 -8.35921 22.8485
O 4.4605 -0.566545 19.3041
O 9.99554 -7.36025 21.519
O -0.795683 3.40526 11.5663
O 4.7869 0.100965 14.0383
O -2.05568 2.16034 13.5412
O 4.10482 -0.542036 10.9557
O 2.87863 -1.67671 12.4385
O 5.6333 -2.53577 18.0083
O 6.32648 -5.7617 20.5438
O 5.62907 -3.65288 20.3888
O 2.03576 -0.897961 14.9534
O 3.53071 -0.304929 16.515
O 8.20217 -5.29414 24.9367
O -1.1791 2.70299 8.79386
O -0.617424 4.84971 8.71859
O 4.45223 0.313859 7.34381
O 2.6098 -0.311777 8.4198
68
 Atoms. Timestep: 90070
C 2.30756 -3.41249 21.4154
C 9.35542 -5.39735 20.3238
C 2.74333 -4.73856 21.4732
C 2.2993 -2.74261 20.1852
C 3.19481 -4.70255 19.1034
C 2.76032 -3.37665 19.028
C -0.133189 1.28902 12.3915
C 2.02494 0.403883 11.6357
C 0.802183 0.243462 12.2973
C 0.108533 2.46214 11.6491
C 2.28658 1.62079 11.0018
C 1.33536 2.64718 11.0052
C 6.27665 -4.78533 18.3627
C 1.47132 0.831749 16.4463
C 6.86909 -5.92038 17.7895