68
 Atoms. Timestep: 0
C 14.6309 -4.40006 6.18352
C 14.8595 1.68353 0.705369
C 13.6007 1.71031 0.105091
C 17.0648 -0.516055 6.00474
C 15.6938 0.580052 0.526721
C 18.3235 -0.543093 6.60521
C 2.70414 1.08424 3.44261
C 2.78781 -2.85312 4.82184
C 1.52901 -2.82633 4.22156
C 3.53861 -0.018912 3.26383
C 5.22164 1.03057 4.64319
C 4.79731 -0.04595 3.8643
C 6.04466 0.793481 0.156166
C 7.72784 1.84329 1.53539
C 6.46904 1.87007 0.935115
C 9.93317 -0.356295 6.83477
C 8.56216 0.739812 1.35675
C 8.13783 -0.336713 0.577855
C 22.5786 1.40843 0.533648
C 24.2618 2.45823 1.91287
C 23.003 2.48502 1.3126
C 23.4131 0.305273 0.354871
C 25.0961 1.35476 1.73423
C 24.6718 0.278234 0.955336
H 12.9578 2.5753 0.250504
H 16.6801 0.53405 0.983527
H 43.7091 -1.96135 4.36697
H 6.20789 0.984571 5.09999
H 5.8261 2.73506 1.08053
H 9.54841 0.693809 1.81355
H 22.3601 3.35 1.45801
H 26.0824 1.30876 2.19103
N 14.9316 0.671313 5.59397
N 15.2921 2.77951 1.49787
N 19.1883 -1.61601 6.45664
N 19.866 -2.45693 6.34049
N 44.2284 1.16846 2.85306
N 3.22037 -1.75713 5.61434
N 5.66205 -1.11887 3.71573
N 6.33975 -1.95978 3.59958
N 6.20039 -4.15609 6.42399
N 8.1604 2.93927 2.32789
N 10.6021 3.57753 0.429288
N 11.2798 2.73662 0.313136
N 22.7343 -3.54114 6.80147
N 23.0948 -1.43295 2.70538
N 27.136 4.19248 0.80677
N 27.8137 3.35157 0.690617
O 16.6819 -1.51304 5.28816
O 12.6448 -3.29214 5.80206
O 14.5297 -0.281735 4.89101
O 16.4283 2.73526 2.02821
O 14.5264 3.76258 1.64571
O 3.15565 -1.01589 2.54725
O 43.5412 2.19217 3.06115
O 43.8265 0.215407 2.15009
O 4.35664 -1.80138 6.14468
O 2.45468 -0.774064 5.76218
O 9.5502 -1.35328 6.11818
O 5.51317 -3.13238 6.63208
O 7.39805 -0.121976 5.72103
O 7.69716 -2.09214 2.85824
O 5.7952 -1.06483 2.47573
O 26.0842 -0.738329 6.49566
O 20.5926 2.51636 0.152186
O 23.932 0.492971 6.09851
O 24.2311 -1.4772 3.23572
O 22.3292 -0.449879 2.85322
68
 Atoms. Timestep: 15
C 12.8503 -4.4948 7.0311
C 14.1519 1.67374 -0.132057
C 12.9308 1.74174 -0.917472
C 15.4025 -0.798296 6.79732
C 15.1208 0.641202 -0.36513
C 16.6287 -0.866981 7.58585
C 0.466528 0.906189 3.44704
C 0.359191 -2.92899 5.25058
C -0.862193 -2.86085 4.46528
C 1.43568 -0.126842 3.21304
C 2.90978 0.768206 5.01649
C 2.65672 -0.197522 4.00047
C 4.80655 0.870396 -0.850229
C 6.28231 1.76373 0.952243
C 5.06079 1.83268 0.16788
C 7.53288 -0.707386 7.88265
C 7.25108 0.732074 0.720222
C 7.00211 -0.230558 -0.29685
C 22.5094 1.42599 -0.35673
C 23.9851 2.32025 1.44689
C 22.7637 2.3884 0.661512
C 23.4785 0.393078 -0.590494
C 24.954 1.28771 1.21381
C 24.7044 0.324207 0.197884
H 12.1927 2.55034 -0.727876
H 16.0821 0.563881 0.231955
H 44.5028 -2.05148 4.6554
H 3.85651 0.702914 5.59923
H 4.31201 2.64205 0.357865
H 8.2124 0.654791 1.31729
H 22.015 3.19776 0.851627
H 25.9153 1.21039 1.8109
N 13.1646 0.357863 6.26076
N 14.406 2.65528 0.901504
N 17.6062 -1.86913 7.38448
N 18.4028 -2.66846 7.23626
N 45.3114 1.02968 2.67688
N 0.612552 -1.94721 6.28387
N 3.63148 -1.20164 3.91503
N 4.41413 -2.04108 3.80156
N 3.71583 -4.28179 7.35069
N 6.55451 2.74816 1.91187
N 9.56127 3.49492 -0.493838
N 10.3512 2.70559 -0.629384
N 21.4148 -3.72486 7.83988
N 22.6562 -1.42764 2.48045
N 27.266 4.05203 -0.00298387
N 28.0663 3.25194 -0.149782
O 15.1775 -1.6914 5.85987
O 10.7672 -3.42722 6.51375
O 12.9124 -0.494793 5.33916
O 15.519 2.57568 1.60067
O 13.5268 3.57497 1.09739
O 1.21057 -1.01983 2.27591
O 44.4952 1.98106 2.94457
O 45.0593 0.176785 1.75511
O 1.70405 -1.99921 6.97051
O -0.265891 -1.0278 6.48004
O 7.30788 -1.6005 6.94522
O 2.91887 -3.35563 7.6298
O 5.05567 -0.416474 6.43436
O 5.66148 -2.06331 2.67577
O 4.08168 -1.01381 2.00843
O 25.0108 -1.04488 7.43882
O 20.4292 2.50069 -0.857271
O 22.7456 0.151738 6.91808
O 23.7692 -1.50724 3.17961
O 21.777 -0.507959 2.67632
68
 Atoms. Timestep: 10168
C 16.7789 -3.28344 6.1519
C 15.6117 1.48802 0.298005
C 17.2083 -2.46772 7.1757
C 18.2963 0.103231 5.94551
C 16.2479 0.296466 0.0565688
C 19.3262 -0.271866 6.74772
C 5.14342 1.0932 3.14947
C 5.19482 -2.61047 5.12935
C 5.24306 2.10185 4.07539
C 5.9056 -0.0470977 3.29601
C 6.85054 0.86109 5.26605
C 6.78775 -0.144762 4.35346
C 8.26902 1.04989 -0.242697
C 9.64465 2.0662 1.44374
C 8.53505 2.07931 0.651051
C 9.99129 4.578 -0.319787
C 10.472 0.992949 1.36089
C 10.2082 -0.0420806 0.462702
C 22.2936 1.89532 -0.00856331
C 23.6273 2.64445 1.83192
C 22.5993 2.83879 0.957057
C 23.0426 0.741378 -0.093784
C 24.3755 1.50386 1.72504
C 24.0809 0.552291 0.764006
H 14.1709 2.82142 -0.408861
H 17.0229 -0.0149333 0.696806
H 41.6148 -1.60639 3.95353
H 7.53462 0.764571 6.05311
H 7.93086 2.93756 0.654988
H 11.3032 0.957305 1.99938
H 22.0486 3.74025 1.00842
H 25.158 1.33814 2.4079
N 15.7159 -2.85919 5.33213
N 16.0658 2.35907 1.3285
N 19.9361 -1.50936 6.51133
N 18.2908 2.3912 -0.392101
N 4.25158 1.25257 2.07771
N 5.31324 -1.54126 6.04887
N 7.59343 -1.26573 4.59424
N 8.41633 2.21326 3.85054
N 9.72469 -3.23501 6.67411
N 9.96013 3.16154 2.3113
N 11.873 3.41508 0.433378
N 12.8582 3.28437 1.30793
N 23.8326 -2.20856 6.81334
N 23.0515 -0.968483 2.80697
N 25.6963 3.96548 0.668392
N 25.4625 -0.895356 1.52642
O 17.9431 -0.697383 4.96953
O 15.3196 -1.62125 5.38035
O 15.968 0.897094 4.5741
O 17.0332 2.00964 2.09704
O 15.5131 3.51266 1.53429
O 5.82163 -1.01233 2.4246
O 41.5577 2.41797 1.86173
O 3.8753 0.240609 1.34404
O 6.2125 -1.5655 6.96643
O 42.3886 -0.49212 5.95191
O 12.3308 -0.77358 6.5869
O 8.75683 -2.5092 7.05188
O 10.516 0.765429 5.53343
O 10.0378 -1.5108 3.15779
O 8.36059 -0.364903 2.30148
O 26.2982 0.0936847 6.69998
O 23.3306 -1.01684 6.73216
O 23.3052 -3.1767 6.11076
O 24.0471 -1.12288 3.60914
O 22.3573 0.119837 2.89879
68
 Atoms. Timestep: 20509
C 18.2469 1.79746 4.89328
C 19.3757 -2.03679 6.4413
C 18.1825 -1.67629 5.90872
C 18.9588 0.728229 4.34347
C 20.6806 1.10345 5.90556
C 20.176 0.390549 4.854
C 40.4496 1.037 3.70181
C 40.3273 -1.71039 5.52041
C 40.1197 2.12144 4.50292
C 6.36685 0.338366 3.90803
C 42.121 1.82006 5.69301
C 7.19693 0.734483 4.92981
C 9.87108 1.91206 0.274475
C 10.6715 3.31378 2.02614
C 9.68947 2.98634 1.12799
C 11.0422 1.18171 0.305501
C 11.8512 2.59689 2.02175
C 12.0272 1.51997 1.18336
C 22.7831 1.94697 0.816818
C 24.2707 2.97738 2.38229
C 23.0307 2.90343 1.7778
C 23.8126 1.06925 0.430051
C 25.2676 2.08516 2.02102
C 25.0424 1.13879 1.04266
H 17.6866 -0.800912 6.27688
H 21.6205 0.831324 6.30642
H 39.2338 2.68401 4.31951
H 42.1874 -2.0692 6.42754
H 8.78907 3.56313 1.08631
H 12.6281 2.87105 2.67828
H 22.272 3.61513 2.03268
H 26.2085 2.11993 2.51484
N 16.9983 2.19962 4.36642
N 16.716 1.70493 0.951247
N 20.8272 -0.742291 4.35652
N 21.9064 -1.20203 4.95334
N 39.5259 0.638477 2.72136
N 40.0175 -0.582431 6.32049
N 8.35052 0.0313798 5.26774
N 8.672 -1.14126 4.70146
N 12.0429 -1.40267 5.95884
N 9.93274 0.249399 2.84662
N 13.0992 0.649188 1.32794
N 14.0276 0.899776 2.23167
N 21.4866 1.88765 0.218686
N 23.9227 -0.231887 3.35324
N 26.236 0.181267 0.722401
N 27.193 0.164248 1.36123
O 18.4843 0.00118712 3.36697
O 15.8816 -0.867719 4.71966
O 16.2829 1.40067 3.64514
O 17.9461 1.49375 1.3126
O 16.0748 2.72481 1.45595
O 6.62185 -0.73097 3.19619
O 38.2513 0.936422 2.82119
O 4.73679 0.0122874 1.66975
O 37.5638 2.74645 0.746841
O 38.9296 0.0826439 6.13925
O 15.0156 1.35963 6.09476
O 10.7912 -1.18481 6.2997
O 12.9464 2.26191 4.81079
O 10.8221 0.548882 3.7223
O 8.89167 0.995001 2.75257
O 27.4913 1.41195 6.01526
O 20.6237 2.83737 0.451741
O 24.3675 -2.05926 5.99494
O 25.0464 -0.210704 3.98806
O 23.0824 0.729841 3.56476
68
 Atoms. Timestep: 30553
C 19.106 2.96798 4.28573
C 20.3578 0.284218 5.78887
C 19.0617 0.101359 5.37435
C 20.1518 2.3465 3.59578
C 21.3776 -0.350539 5.11063
C 21.4464 2.5089 4.02239
C 38.0395 0.217987 5.18995
C 34.6121 3.76354 0.6569
C 37.4306 1.07652 6.08148
C 39.4009 -0.0334217 5.33439
C 35.9568 3.50418 0.78399
C 40.1195 0.558682 6.37324
C 9.75126 1.65562 0.720198
C 10.0395 3.11205 2.61107
C 9.2324 2.51313 1.67109
C 11.1168 1.41149 0.718052
C 11.3904 2.85224 2.59658
C 11.9315 2.00829 1.6517
C 27.7662 0.312736 6.50874
C 26.3675 2.97178 0.978785
C 24.9972 3.0479 1.01286
C 28.4113 -0.445424 5.52384
C 30.5167 0.142003 6.42962
C 29.7781 -0.526378 5.48645
H 18.2745 0.585256 5.89983
H 22.3787 -0.223963 5.42944
H 36.3924 1.27683 5.98042
H 36.1987 0.313197 1.54687
H 8.18977 2.71319 1.68373
H 14.4415 3.3241 3.29983
H 24.5234 3.63066 1.76931
H 31.5709 0.0759665 6.3932
N 17.7573 2.80298 3.90132
N 17.1089 3.20246 0.456511
N 22.4733 1.8381 3.3477
N 23.7346 1.93578 3.74809
N 37.2466 -0.406185 4.18
N 33.636 0.985701 1.55944
N 41.4719 0.337516 6.62017
N 7.89528 -0.676423 6.10333
N 12.3995 -1.04979 6.237
N 9.15502 0.34144 3.56531
N 13.2999 1.74467 1.61304
N 14.1442 2.32469 2.46661
N 26.3554 0.446002 6.56073
N 27.1352 3.66798 1.93818
N 30.7289 2.35685 4.49049
N 32.0487 2.19727 4.45556
O 19.9314 1.60825 2.54128
O 16.487 -0.12695 4.36842
O 17.4103 1.87439 3.09691
O 18.3268 3.42471 0.808379
O 16.1649 3.78204 1.12111
O 40.3369 2.83078 4.5061
O 35.9579 -0.328513 4.23745
O 38.1064 2.58146 3.20209
O 34.2955 1.54394 2.51949
O 32.3894 1.25334 1.43188
O 15.5142 2.16987 6.30174
O 11.1221 -0.945738 6.40841
O 13.1631 1.90978 5.23337
O 9.8851 0.846222 4.50231
O 7.92747 0.690407 3.48684
O 28.0763 2.5554 4.62876
O 22.2559 3.34343 0.940179
O 25.5892 -0.236334 5.78737
O 28.4239 3.6457 1.86964
O 26.2395 0.694157 2.88536
