68
 Atoms. Timestep: 0
C 43.7608 4.94866 3.80528
C 45.0495 4.77761 1.76879
C 43.8438 4.62002 2.45213
C 45.0403 -0.950755 4.47502
C 2.23679 5.26394 2.43867
C 46.246 -0.792837 3.79172
C 40.3089 2.00431 0.382
C 46.4535 0.345812 3.56571
C 45.2478 0.188223 4.24905
C 41.4317 2.4903 1.05174
C 47.5762 0.832144 4.23559
C 42.6374 2.64822 0.368445
C 42.302 2.2452 1.4839
C 4.51126 0.586705 4.66761
C 42.385 1.91657 0.130756
C 43.4248 2.73119 2.15364
C 0.778074 2.56049 0.117295
C 44.6305 2.88911 1.47035
C 43.246 1.83888 2.88848
C 44.5347 1.66784 0.851991
C 43.329 1.51025 1.53533
C 44.3687 2.32487 3.55822
C 1.72199 2.15417 1.52187
C 45.5744 2.48279 2.87492
H 42.9743 4.24008 1.9208
H 3.18894 5.39607 1.92932
H 44.3783 -0.191717 3.71772
H 4.59298 0.964266 3.72623
H 46.3714 0.049176 4.81962
H 6.58609 1.20516 4.82814
H 42.4595 1.13031 1.004
H 2.67414 2.28629 1.01252
N 42.4998 4.766 4.452
N 1.19914 4.44262 0.391513
N 47.3886 -0.314337 4.41356
N 48.284 0.060894 4.90072
N 39.048 1.82165 1.02872
N 2.60317 0.010823 2.18843
N 43.7799 3.12672 0.990279
N 44.6753 3.50195 1.47744
N 41.0411 2.06254 2.13062
N 4.59629 0.251715 3.29033
N 45.773 3.36761 2.09218
N 2.73305 3.74284 2.57934
N 41.985 1.65622 3.5352
N 5.5402 -0.154604 4.69491
N 46.7169 2.96129 3.49676
N 3.67696 3.33652 3.98392
O 40.1171 0.842123 0.502343
O 41.5409 4.32502 3.78153
O 37.7024 0.155471 0.444921
O 7.14938 3.10391 5.01627
O 5.03352 2.51901 5.02786
O 41.3643 2.79572 2.29926
O 38.0891 1.38067 0.358248
O 38.9496 2.10907 2.24184
O 3.69755 0.159561 1.59299
O 1.58168 -0.425337 1.60458
O 43.3574 3.03661 3.40116
O 40.0822 1.62157 1.46015
O 40.9427 2.34996 3.34374
O 5.69066 0.400453 2.69489
O 3.5748 -0.184444 2.70648
O 44.3014 2.6303 4.80574
O 41.0261 1.21525 2.86472
O 41.8867 1.94364 4.74831
O 6.63458 -0.005866 4.09947
O 4.51871 -0.590764 4.11106
68
 Atoms. Timestep: 91
C 45.7822 5.43359 3.74703
C 46.8771 5.77736 1.8019
C 45.8677 5.23648 2.45559
C 64.5403 -6.75032 4.38426
C -22.1676 6.36258 2.4419
C 65.6032 -6.31228 3.75605
C 45.8639 0.717929 0.440376
C 62.4969 -3.73603 3.51414
C 61.5158 -4.29139 4.1668
C 46.6437 1.61882 1.07072
C 63.2446 -2.82432 4.10577
C 47.5793 2.22044 0.407149
C 49.393 0.661516 1.58231
C -4.34976 -3.34944 4.58017
C 49.4048 0.561643 0.29927
C 50.289 1.50499 2.17256
C -18.7621 1.94237 0.242068
C 51.5651 1.72921 1.56
C 52.9328 -0.539953 2.88323
C 54.0899 -0.198545 0.947391
C 53.1213 -0.834201 1.65599
C 53.8608 0.194883 3.51652
C -15.0053 0.498694 1.58339
C 54.8465 0.771886 2.82868
H 45.1504 4.64824 1.94752
H -21.4281 6.9577 1.9461
H 60.8263 -4.88944 3.66632
H -5.97645 -2.41572 3.60254
H 64.1058 -4.72156 4.75058
H -2.46906 -2.43858 4.72165
H 52.3018 -1.44113 1.24213
H -14.3378 1.04075 1.06689
N 44.7442 4.85911 4.36324
N -23.0921 5.58314 0.501643
N 66.4872 -5.55659 4.37551
N 67.4361 -4.95447 4.78315
N 44.8941 0.0995487 1.07777
N -7.44741 -3.93448 2.21236
N 48.6327 2.78845 0.968254
N 49.084 3.81156 1.57697
N 48.3366 0.0905074 2.19152
N -4.1071 -3.71995 3.27188
N 52.0146 2.8554 2.06125
N -17.0672 3.47569 2.63639
N 51.867 -1.11448 3.49078
N -0.350688 -5.21683 4.60553
N 55.6787 1.46735 3.49464
N -13.452 2.22274 3.94986
O 49.0035 -1.83823 0.610206
O 43.8934 4.15645 3.73265
O 46.9049 -3.0945 0.587047
O -6.62834 1.33131 4.87223
O -8.45567 0.106747 4.8913
O 46.64 1.79314 2.32066
O 44.0684 -0.62144 0.451936
O 44.7711 0.227191 2.31116
O -6.52323 -3.39182 1.54835
O 60.6644 -4.66169 1.60719
O 50.0524 1.78153 3.38998
O 47.4524 -0.586279 1.58488
O 48.0768 0.328189 3.37738
O -3.12683 -3.31022 2.6373
O -4.95655 -4.33047 2.65205
O 53.7393 0.444536 4.74171
O 51.0151 -1.82276 2.86659
O 51.69 -0.945582 4.70735
O 0.495652 -4.58325 3.98476
O -0.997672 -6.05007 3.85504
68
 Atoms. Timestep: 10122
C 44.0159 4.49634 3.54264
C 44.9491 5.17749 1.48367
C 43.9094 4.79034 2.23092
C 45.1884 4.56045 4.11065
C 46.1021 5.2719 2.08127
C 46.2291 4.94156 3.379
C 43.9402 1.54354 0.633254
C 56.9202 -2.25858 3.11457
C 56.2253 -2.7121 4.18143
C 45.0511 2.29824 0.811473
C -3.60352 -1.5198 3.31264
C 58.4418 -1.2262 4.54526
C 47.7958 1.32599 2.25661
C -12.7779 1.82951 0.224711
C 47.834 1.2736 0.917504
C 48.8133 1.94961 2.90701
C -11.7795 2.44511 0.888481
C 49.836 2.50992 2.2233
C 50.1636 -0.240407 2.77516
C -10.0738 0.47685 1.0208
C 50.4673 -0.188831 1.47595
C 50.977 0.400557 3.62607
C -9.28001 1.10163 1.88218
C 52.0694 1.06407 3.18322
H 43.0126 4.73463 1.79404
H -14.72 5.5725 1.51893
H 55.3797 -3.29801 4.04434
H -3.04763 -1.16171 2.50517
H 47.0557 0.811905 0.410089
H -10.9926 2.87934 0.362769
H 49.8515 -0.675306 0.820733
H -8.43826 1.61561 1.54434
N 42.9323 4.12647 4.27696
N -4.13423 1.50421 4.9355
N 47.3941 4.97299 3.96918
N 48.4327 5.27716 3.29178
N 43.1824 1.07369 1.69889
N -5.1366 -2.53861 1.83401
N -2.05275 -0.474678 4.64709
N -14.1236 3.71534 0.97974
N 46.7299 0.746906 2.92353
N -0.104256 -2.17218 3.65241
N -10.7929 3.13797 2.90244
N -9.78465 3.69764 2.29507
N 49.0332 -0.932494 3.20384
N 2.898 -3.45105 4.48978
N 52.8688 1.70065 4.0647
N -7.70656 2.36106 3.68929
O 45.3147 -1.79498 0.519825
O 41.9091 3.63663 3.74062
O 42.9271 -1.66795 0.69099
O -3.17372 1.93966 4.25666
O -5.20956 1.33948 4.35037
O 45.3862 2.62087 1.97141
O 41.9962 0.74422 1.5276
O 43.6569 0.908348 2.83583
O -4.43743 -2.20022 0.847412
O 42.7233 6.87515 1.62101
O 48.8314 1.9907 4.16959
O 45.9766 -0.0570053 2.43192
O 46.431 1.05459 4.02502
O 0.928163 -1.89989 3.03838
O -1.11875 -2.44574 2.97733
O 50.7013 0.405177 4.84529
O 48.1239 -1.23783 2.38788
O 48.9224 -1.33329 4.38648
O 3.77882 -2.71345 4.00279
O 2.2943 -4.17091 3.73368
68
 Atoms. Timestep: 20193
C 42.5653 3.85546 3.17884
C 44.3065 5.08932 2.17253
C 43.0479 4.58939 2.15225
C 43.3774 3.57942 4.21605
C 45.096 4.81333 3.21856
C 44.6348 4.05907 4.23503
C 41.7038 1.53264 0.414395
C 52.2228 -1.51551 2.65721
C 51.9995 -2.11994 3.92433
C 54.0645 -1.38081 4.85174
C -2.96508 -0.803221 2.53356
C 54.2681 -0.732107 3.61302
C 47.2769 2.05781 2.69486
C -8.44256 2.89958 0.573679
C 47.0032 2.26016 1.37307
C 48.4803 2.47478 3.20643
C -7.26524 3.33067 1.10352
C -6.96263 3.10811 2.41263
C 48.7 -0.495844 2.6858
C -6.63953 0.625053 0.867591
C 48.6947 -0.137817 1.37359
C 49.733 -0.100861 3.49824
C -5.60312 0.997542 1.68431
C 50.7439 0.647017 3.00019
H 42.4277 4.80316 1.35642
H 56.1596 -3.28565 3.24478
H 51.1192 -2.6715 4.0304
H -2.74079 -0.31288 1.64586
H 46.098 1.93105 0.96262
H -6.5721 3.80153 0.488347
H 47.9087 -0.443027 0.753273
H -4.8298 1.58163 1.30621
N 41.2579 3.41846 3.15364
N -11.5545 5.88636 1.1453
N 44.3016 -1.0766 0.692757
N 45.5386 -0.645527 0.749237
N 41.4318 0.873912 1.62806
N 51.3368 -1.65646 1.5532
N -0.938614 0.023572 3.37454
N -0.0318295 0.263911 4.30092
N 46.3363 1.41606 3.48574
N 2.48604 -0.539081 3.82485
N -5.73918 3.45355 2.94204
N -4.81146 4.01549 2.19168
N 47.6745 -1.26726 3.16522
N 4.53478 -2.59634 4.14217
N 51.7811 1.01559 3.83813
N -3.51795 1.69824 3.38515
O 31.7567 6.4698 0.561233
O 40.592 3.3465 2.0727
O 40.6531 3.18054 4.25074
O -10.3614 6.31334 1.11978
O -1.08791 2.5757 4.79391
O 43.7238 2.32263 1.17442
O 40.2676 0.449714 1.88084
O 42.3308 0.600169 2.445
O 50.0606 -1.12699 0.432156
O 40.196 6.10972 1.64888
O 48.8112 2.22843 4.42343
O 45.3614 0.786838 2.97842
O 46.392 1.49093 4.76071
O 3.15454 0.266679 3.13074
O 1.57982 -1.21007 3.23245
O 49.7722 -0.452536 4.73133
O 47.0912 -2.11246 2.47565
O 47.2311 -1.13827 4.33704
O 5.51026 -1.96881 3.6265
O 3.51004 -2.80837 3.41523
68
 Atoms. Timestep: 30220
C 41.1936 1.38611 3.76715
C 43.0246 2.37118 2.58498
C 41.6785 2.1748 2.75459
C 42.0886 0.803353 4.63942
C 43.8971 1.78133 3.46393
C 43.4356 1.01445 4.4966
C 39.7652 0.421693 0.697329
C 51.3007 -2.22363 2.97272
C 50.3243 -2.78124 3.74799
C 41.092 0.231275 1.02693
C 52.6115 -2.37831 3.34374
C 52.9557 -3.11758 4.43214
C -5.87767 4.53051 1.97465
C 4.63274 1.87606 4.15459
C -6.72148 5.11209 1.05713
C -4.51283 4.69128 1.81693
C 5.98775 2.00642 4.01512
C -4.02333 5.38873 0.757486
C 48.4077 0.320967 3.10987
C -6.09061 1.7592 1.21834
C 47.8824 0.997726 2.04052
C 49.7631 0.439064 3.36755
C -4.73991 1.81798 1.46657
C -4.19864 1.1768 2.54209
H 40.9985 2.62259 2.08387
H 44.9357 1.92719 3.35034
H 49.3104 -2.6594 3.47757
H 53.3814 -1.94975 2.76718
H -7.76296 5.00485 1.16327
H 6.37152 2.53786 3.19831
H 46.8425 0.934809 1.85273
H -4.11204 2.38945 0.836517
N 39.8016 1.19871 3.89435
N 43.5019 3.17483 1.53317
N 33.4355 4.40194 1.25755
N 34.724 4.69444 1.2546
N 38.7291 -0.127452 1.46596
N 50.9621 -1.51708 1.81081
N 43.0529 0.7806 0.542016
N 43.9067 -0.0481725 1.52974
N -6.42576 3.78086 3.03552
N 3.74878 2.43456 3.21199
N -2.64967 5.51886 0.621599
N 8.75702 2.23036 3.78116
N 47.5616 -0.484215 3.90302
N 4.22591 -1.44844 4.31537
N -2.83631 1.25773 2.81361
N -2.00364 1.94124 2.05254
O 30.7976 4.02964 1.46128
O 39.0059 2.01816 3.36613
O 39.2978 0.194016 4.47902
O 44.7496 3.41793 1.40527
O 42.6985 3.69328 0.691883
O 41.4044 -0.472564 2.05517
O 37.5898 0.369229 1.40062
O 38.8602 -1.15222 2.19168
O -2.91168 -0.933446 1.11817
O 40.3507 5.99476 1.40958
O -3.67713 4.20299 2.6658
O 47.0862 3.70664 3.18296
O 49.0715 3.13 3.85397
O 4.18795 3.09042 2.22006
O 2.48435 2.28764 3.32001
O 50.2902 -0.164218 4.3693
O 46.4755 -0.931491 3.48212
O 36.9649 3.1656 0.904105
O 4.96938 -0.805414 3.50498
O 2.96166 -1.3712 4.15921
68
 Atoms. Timestep: 40269
C 29.2909 2.83667 1.40109
C 42.108 -1.18068 4.22743
C 40.7756 -0.796012 4.28953
C 29.7202 1.7376 2.14685
C 31.9504 2.05042 1.30428
C 31.0482 1.34493 2.0988
C 50.2063 -3.3318 3.87842
C 41.7872 4.65851 2.29472
C 50.245 -2.32642 2.91251
C 51.3858 -3.99237 4.20672
C 42.9454 3.99689 2.64602
C 42.9372 2.98645 3.58649
C 3.19163 0.174035 0.983322
C 4.58766 3.916 2.60442
C 13.3747 -3.18792 3.64174
C 4.50487 -0.288882 0.952613
C 5.87659 3.43281 2.57616
C 6.29449 2.49277 3.55783
C 48.2772 0.472421 3.52157
C -5.80643 2.16594 1.94976
C 47.2782 1.14886 2.86225
C 49.5843 0.821084 3.22085
C -4.50872 2.51607 1.69437
C -3.49291 1.85322 2.32492
H 40.4449 0.0455189 3.71732
H 32.9721 1.74405 1.26907
H 49.3432 -1.81715 2.65742
H 43.8682 4.26108 2.1763
H 12.3713 -2.82802 3.66512
H 6.55382 3.76425 1.83028
H 46.2797 0.88074 3.06041
H -4.2869 3.29198 0.987754
N 27.9389 3.25487 1.42512
N 43.0382 -0.464869 3.41
N 31.4549 0.237782 2.8621
N 32.7178 -0.186698 2.85981
N 38.409 0.667604 0.849842
N -11.5276 5.7154 1.32842
N 44.1697 2.37011 3.86325
N 33.7202 5.61908 0.961105
N 2.26505 -0.290827 1.9793
N 4.15414 4.89408 1.59437
N 7.60684 2.00386 3.54523
N 8.49075 2.38535 2.6331
N 37.3785 3.7795 0.803563
N -6.84176 2.83492 1.28037
N -2.16313 2.17558 2.03963
N -1.83247 3.1434 1.18227
O 28.8864 1.08621 2.91908
O 27.6038 4.42493 1.18905
O 26.9908 2.47018 1.59638
O 44.2681 -0.84364 3.31379
O 42.6737 0.569039 2.73485
O 40.7912 -0.639334 1.40376
O 47.8621 -3.39199 4.0037
O 38.347 0.194188 1.99566
O 0.129809 1.68399 4.37341
O -2.9246 -0.205084 1.0536
O 4.91896 -1.13651 1.88338
O 1.25323 0.399268 2.23699
O 2.32446 -1.43587 2.52366
O 15.4817 1.02981 4.30833
O 2.9435 5.32854 1.64418
O 50.5649 0.147234 3.72916
O 36.1683 3.42909 1.01509
O 38.2504 3.20444 1.51806
O 3.92305 -0.455153 4.21925
O 45.3367 2.39712 1.38158
68
 Atoms. Timestep: 50324
C 28.6483 1.75898 2.73913
C 30.8714 1.13884 2.01621
C 29.9449 2.07704 2.26955
C 28.2805 0.491894 2.98312
C 30.4757 -0.126686 2.24308
C 29.191 -0.445033 2.72884
C 40.1559 1.17502 1.18367
C 51.9883 -2.19186 2.89055
C 50.7485 -2.42531 3.51335
C 41.2506 0.363467 1.50744
C 43.2328 3.04332 3.18074
C 52.9287 -4.05808 4.11852
C 4.07552 3.52885 2.85135
C 15.4641 -0.360992 3.92006
C 3.98633 4.23622 1.62882
C 5.26804 2.85064 3.12627
C 16.644 -1.04714 4.17444
C 6.33396 2.88113 2.14802
C 47.5954 0.805405 3.19612
C -5.78211 2.6912 1.68894
C 46.8032 1.51247 2.32056
C -4.17612 1.29016 3.41191
C -4.5594 3.15512 1.92508
C -3.75835 2.45578 2.78062
H 30.2321 3.05008 2.07529
H 31.1785 -0.850313 2.05055
H 49.9089 -1.79356 3.28639
H 44.1823 3.20456 2.69056
H 3.07316 4.76094 1.41524
H 17.4322 -1.01614 3.43763
H 45.8586 1.15248 2.1507
H -4.23582 4.05629 1.43544
N 27.7178 2.73836 2.96395
N 32.1834 1.46436 1.53991
N 28.7836 -1.71566 2.98117
N 19.8066 3.39509 2.75875
N 38.8439 0.934797 1.80929
N -0.811682 -1.07389 1.95175
N 33.8329 5.89551 1.1418
N 43.6918 -1.12442 2.08267
N 12.7659 -2.5463 3.77783
N 15.3136 0.384116 2.68948
N 7.5122 2.17622 2.44957
N 8.54487 2.12399 1.61819
N 47.1372 -0.406511 3.87823
N 3.83136 -1.22294 4.06698
N -2.50367 2.92769 3.02504
N -2.07089 4.05088 2.4593
O 27.0939 0.170057 3.47571
O 38.0013 -2.23833 3.20705
O 26.4422 2.65834 2.84865
O 33.003 0.621582 1.11408
O 32.6489 2.61868 1.52169
O 41.0872 -0.61813 2.36552
O 37.7778 1.04306 1.07456
O 38.6796 0.586656 3.06867
O -9.64644 5.13023 1.10035
O -1.60816 -0.0788992 1.98594
O 4.80773 0.786233 1.01294
O 11.7696 -1.75903 3.518
O 2.251 1.33936 1.58514
O 16.2524 0.45188 1.78959
O 14.2028 1.01541 2.46993
O 49.5989 0.637846 4.20704
O 46.1077 -0.959329 3.47358
O 37.1996 3.61968 1.64656
O 4.05467 -0.0388522 3.647
O 2.78129 -1.7471 3.67424
68
 Atoms. Timestep: 60421
C 28.6401 0.63417 2.30159
C 30.9167 -0.14743 2.61462
C 30.0136 0.867668 2.38079
C 28.1843 -0.648618 2.45403
C 30.4363 -1.40851 2.77086
C 29.0773 -1.65729 2.6936
C 39.5673 0.9685 1.3763
C 51.8321 -2.60171 3.52028
C 50.4525 -2.73681 3.59281
C 40.3938 0.0165733 1.97664
C 42.3316 1.21992 1.24856
C 41.7821 0.155044 1.91897
C 13.5157 -1.44131 2.52288
C 15.1552 1.00256 3.62067
C 3.78068 5.36407 1.55109
C 14.7151 -2.10675 2.68788
C 16.3478 0.336095 3.76459
C 6.14423 4.03242 1.83864
C 47.3599 1.20639 2.97122
C -4.41488 3.23414 1.54473
C -5.33162 2.29503 2.1297
C -3.56345 1.10087 3.23341
C -3.07278 3.08641 1.83937
C -2.65999 2.03078 2.68036
H 30.3803 1.84013 2.27256
H 31.1221 -2.19194 2.95578
H 49.8285 -2.01838 3.11582
H 43.3956 1.3189 1.22342
H 12.526 0.13636 1.42233
H 17.1533 0.638141 3.11492
H -6.36451 2.40834 1.89087
H -2.35288 3.77865 1.421
N 27.7373 1.70324 2.07804
N 32.3173 0.0987339 2.7028
N 18.9161 2.8032 2.85212
N 19.7414 1.78955 3.0763
N 38.1433 0.879134 1.44377
N 52.4185 -1.52635 2.80188
N 42.6761 -0.75989 2.50613
N 42.2778 -1.75412 3.2883
N 12.3593 -1.79774 3.32597
N 15.0167 2.07276 2.62461
N 7.34139 3.33998 2.01858
N 8.40733 3.63492 1.30344
N 46.3933 0.248867 3.5108
N 5.47035 -0.42759 3.53113
N -1.30077 1.89238 3.00791
N -0.395455 2.7897 2.62686
O 26.9088 -0.919262 2.36741
O 28.1891 2.89739 1.9981
O 26.4547 1.54194 1.96185
O 33.1696 -0.846879 2.87822
O 32.7814 1.28947 2.61679
O 39.8696 -1.02024 2.55442
O 47.7125 -3.25216 3.42871
O 37.5923 0.26477 2.465
O 1.41647 -1.37776 2.75839
O -0.611162 -0.683799 2.15667
O 14.8344 -3.05427 3.61243
O 11.373 -0.980275 3.29548
O 12.4148 -3.00201 4.03828
O 15.9408 2.39639 1.78349
O 13.9154 2.73193 2.54804
O 49.1767 0.144181 4.00949
O 45.1528 0.352164 3.15365
O 36.3816 4.02871 1.4224
O 6.29766 0.322015 2.84393
O 4.20184 -0.216333 3.36856
68
 Atoms. Timestep: 70517
C 29.8301 -0.528807 2.77145
C 32.1397 -1.21791 2.4871
C 31.1394 -0.263731 2.37759
C 29.5372 -1.78809 3.30334
C 31.8243 -2.45416 3.02656
C 30.5325 -2.74156 3.43688
C 38.7486 0.707309 1.45681
C 50.8033 -2.68006 3.53843
C 49.4404 -2.88048 3.68677
C 39.6572 -0.289392 1.85712
C 41.4817 1.1042 1.20193
C 41.0312 -0.0818974 1.73327
C 13.0959 -0.521177 1.89739
C 24.4273 -3.42397 3.6311
C 13.1056 0.774137 1.3927
C 4.66482 4.29491 1.76362
C 15.985 1.38967 3.54733
C 15.9978 0.0914313 4.02505
C 46.6613 1.59712 2.88913
C -4.46337 3.81901 2.05008
C -5.36939 2.83484 2.41104
C -3.57238 1.38116 3.06171
C -3.10747 3.54215 2.14804
C -2.66086 2.33303 2.65667
H 31.383 0.69461 1.98115
H 22.9956 2.38904 3.125
H 48.7665 -2.13892 3.31936
H 52.7144 -3.44903 4.01254
H 12.2293 1.37372 1.47892
H 16.8611 1.78999 3.08876
H -6.41229 3.0238 2.29485
H -2.39708 4.27753 1.85125
N 28.8257 0.478421 2.60465
N 33.4661 -0.936053 2.04377
N 30.2074 -3.99085 3.98293
N 11.3408 5.38589 1.33085
N 37.3314 0.566805 1.63929
N 51.3107 -1.529 2.86179
N 42.004 -1.02636 2.12499
N 32.1182 3.36174 2.61586
N 11.92 -1.02194 2.54718
N 24.4086 -2.0968 3.11396
N 17.1506 -0.700703 3.93488
N 18.2884 -0.239194 3.42487
N 45.7106 0.568115 3.14187
N -4.91078 5.0833 1.5629
N -1.29231 2.05332 2.77388
N -0.371512 2.905 2.34931
O 28.3256 -2.09636 3.66003
O 29.064 1.46691 1.75201
O 27.7188 0.404929 3.32196
O 24.7886 3.74381 2.07559
O 33.7752 0.220267 1.57274
O 39.2241 -1.41625 2.32637
O 46.7211 -3.31305 3.85357
O 36.8767 -0.362036 2.47075
O 0.973124 -1.29551 2.82238
O -1.07151 -0.728958 2.21797
O 4.68763 3.06017 2.1593
O 10.8441 -0.315382 2.58339
O 11.9215 -2.15103 3.17283
O 25.491 -1.53221 2.7091
O 23.3065 -1.4355 3.02783
O 48.4665 0.295255 3.63013
O 44.4981 0.708709 2.74634
O 46.0323 -0.534361 3.7302
O 6.12174 1.20981 3.95602
O 3.42778 -0.189718 1.56883
68
 Atoms. Timestep: 80691
C 30.0893 -0.606513 2.88911
C 32.3629 -1.43663 2.67687
C 31.4256 -0.419553 2.5454
C 29.6993 -1.85599 3.38034
C 31.9534 -2.66665 3.1667
C 30.628 -2.87808 3.52009
C 38.7865 1.05051 2.29766
C 40.6864 2.33876 1.51741
C 39.3347 2.2428 1.82569
C 39.6271 -0.0614299 2.45027
C 41.4779 1.22229 1.65108
C 40.9785 0.0276854 2.11508
C 3.45676 5.10675 1.338
C 14.9696 2.23843 3.29053
C 13.748 1.71992 3.7022
C 4.61109 4.31167 1.37645
C 16.0963 1.42277 3.32573
C 16.0105 0.115102 3.77132
C 46.3558 1.43653 2.49294
C -4.66464 3.72346 1.73499
C -5.47099 2.69534 2.22092
C -3.58165 1.22056 2.25659
C -3.31358 3.47876 1.53325
C -2.77239 2.23495 1.7906
H 31.7416 0.527096 2.16945
H 23.1412 2.01421 3.2745
H 38.7078 3.09419 1.70333
H 42.4998 1.29734 1.38229
H 22.4014 -3.13008 3.67285
H 17.0391 1.79932 3.00581
H -6.51073 2.87049 2.39134
H 7.49997 -0.442101 3.97757
N 29.1615 0.473953 2.72194
N 33.7229 -1.21444 2.31179
N 20.022 0.583109 1.2126
N 11.3391 5.03599 1.3904
N 37.3926 0.989238 2.62189
N 51.4562 -1.13996 3.88928
N 41.8835 -1.04548 2.22736
N 32.0173 3.22483 2.6854
N 2.17669 4.60535 1.73628
N 24.5859 -1.88637 2.8355
N 17.1406 -0.72282 3.81396
N 18.3463 -0.306883 3.42922
N 45.5218 0.387392 2.98735
N -5.19958 5.01151 1.43974
N -1.40938 1.98402 1.58113
N 9.59021 -1.75572 3.97722
O 28.4598 -2.08698 3.70553
O 29.5251 1.56142 2.1341
O 27.9526 0.413114 3.16392
O 25.077 3.31371 2.40024
O 34.1028 -0.059449 1.88048
O 39.1525 -1.17657 2.91806
O 36.6754 2.05597 2.65643
O 36.8047 -0.127349 2.87473
O 1.45084 -1.01498 3.83154
O -0.559911 -0.134977 3.5373
O 4.56537 3.08632 1.81004
O 10.6596 -0.100244 1.74195
O 2.01912 3.37086 2.07095
O 25.7291 -1.37315 2.53056
O 23.5309 -1.14729 2.72182
O 48.2235 0.0469617 2.44488
O 44.2431 0.450819 2.84063
O 46.0158 -0.657611 3.57159
O 5.73427 1.2326 3.75082
O 3.08186 -0.184146 1.65042
68
 Atoms. Timestep: 90699
C 30.1871 -0.634007 2.91343
C 32.4362 -1.52071 2.6636
C 31.5179 -0.47409 2.54911
C 29.7837 -1.88716 3.41352
C 32.015 -2.75429 3.16398
C 30.6948 -2.94008 3.54314
C 38.8146 1.03371 2.28487
C 40.7014 2.36472 1.52597
C 39.3461 2.24584 1.81449
C 39.6741 -0.0735833 2.4631
C 41.5081 1.24845 1.67752
C 41.0244 0.0315338 2.13738
C 3.48728 5.16448 1.33637
C 15.1021 2.30524 3.30771
C 23.3306 -3.649 3.70868
C 4.62936 4.34277 1.39147
C 16.2136 1.45647 3.34738
C 16.1045 0.136479 3.79125
C 46.3749 1.45249 2.5027
C -4.6138 3.76743 1.73692
C -5.41021 2.72341 2.2304
C -3.51136 1.24293 2.26129
C -3.26471 3.52368 1.52932
C -2.71578 2.27017 1.78377
H 31.843 0.476377 2.16594
H 23.2521 1.88309 3.26126
H 38.7015 3.09146 1.67073
H 42.5313 1.34569 1.4257
H 22.4696 -3.00493 3.67343
H 17.1634 1.81638 3.03379
H -6.45112 2.89342 2.39846
H 7.60872 -0.375025 3.96748
N 29.2775 0.475321 2.75155
N 24.327 4.13004 2.26767
N 20.0121 0.509714 1.25333
N 11.3723 4.92192 1.4408
N 37.4137 0.938566 2.57187
N 51.527 -1.08532 3.89347
N 41.9376 -1.04634 2.25721
N 32.1444 3.18214 2.68257
N 2.19414 4.66607 1.69963
N 24.6815 -1.78489 2.85648
N 17.2168 -0.733233 3.83964
N 18.4298 -0.344944 3.46641
N 45.5555 0.380661 2.99384
N -5.15219 5.0667 1.42919
N -1.35831 2.02628 1.55478
N 9.67935 -1.69603 3.91373
O 28.5486 -2.0923 3.75316
O 29.6344 1.54021 2.11539
O 28.1012 0.463308 3.25068
O 25.1831 3.16011 2.32221
O 34.1709 -0.160409 1.83695
O 39.2204 -1.19387 2.95475
O 36.6811 1.99858 2.61358
O 36.8431 -0.20944 2.76674
O 1.57736 -0.935593 3.87078
O -0.447183 -0.0986597 3.48592
O 4.56407 3.11485 1.83985
O 10.6317 0.00500614 1.72303
O 2.0118 3.40771 1.95496
O 25.8411 -1.27277 2.61166
O 23.6345 -1.03545 2.69043
O 48.2494 0.0656658 2.45604
O 44.2705 0.432347 2.85257
O 46.0668 -0.680178 3.55122
O 5.83006 1.28169 3.68381
O 3.0874 -0.0842273 1.68576
68
 Atoms. Timestep: 100000
C 30.1606 -0.597513 2.91087
C 32.4224 -1.49006 2.61006
C 31.4949 -0.441978 2.50703
C 29.7623 -1.84802 3.43481
C 32.0066 -2.72134 3.13478
C 30.6826 -2.90214 3.55332
C 38.7872 1.03064 2.22261
C 40.6955 2.36823 1.47601
C 39.3275 2.24859 1.76122
C 39.6521 -0.0745736 2.41752
C 41.5066 1.24816 1.6265
C 41.0151 0.0284374 2.09015
C 3.51847 5.14788 1.45465
C 15.1398 2.29791 3.41939
C 23.3622 -3.6582 3.83891
C 4.66387 4.31854 1.473
C 16.2602 1.4462 3.43885
C 16.1486 0.117403 3.86853
C 46.3518 1.42297 2.43789
C -4.61716 3.74529 1.67461
C -5.43321 2.69633 2.15062
C -3.5118 1.22282 2.24459
C -3.25102 3.50518 1.50168
C -2.69969 2.25623 1.7878
H 31.8152 0.505614 2.10106
H 23.2517 1.91535 3.22359
H 38.6792 3.0955 1.61761
H 42.5396 1.3471 1.37257
H 22.497 -3.00897 3.82847
H 17.2181 1.8091 3.12152
H -6.48961 2.86187 2.28402
H 7.63678 -0.39204 3.94756
N 29.2417 0.512762 2.76225
N 24.3189 4.15926 2.18296
N 20.0066 0.55228 1.29492
N 11.3819 4.97333 1.49488
N 37.3692 0.921077 2.47228
N 51.5289 -1.07852 3.84437
N 41.9324 -1.05424 2.21292
N 32.1235 3.16324 2.60834
N 2.22191 4.64978 1.84551
N 24.7155 -1.78647 2.97238
N 17.2676 -0.756809 3.90218
N 18.4994 -0.35592 3.56251
N 45.5118 0.339542 2.8931
N -5.1494 5.04574 1.34668
N -1.31671 2.03145 1.6317
N 9.75323 -1.64546 4.15763
O 28.5221 -2.05055 3.80309
O 29.5847 1.55688 2.07214
O 28.0779 0.529549 3.33861
O 25.1778 3.1799 2.19762
O 34.1666 -0.11976 1.77178
O 39.1907 -1.18772 2.93442
O 36.6136 1.97768 2.50717
O 36.8049 -0.240939 2.61042
O 1.57984 -0.927294 3.82557
O -0.436759 -0.0936401 3.42501
O 4.5921 3.07654 1.88926
O 10.652 -0.00645561 1.89407
O 2.04904 3.38901 2.11528
O 25.879 -1.25305 2.76091
O 23.6596 -1.05287 2.77629
O 48.2617 0.0547462 2.48565
O 44.2336 0.401126 2.74156
O 45.9962 -0.735401 3.43966
O 5.86108 1.2577 3.60988
O 3.07189 -0.0988737 1.58076
68
 Atoms. Timestep: 100868
C 30.2137 -0.558671 2.90883
C 32.4604 -1.43012 2.60906
C 31.5365 -0.398207 2.506
C 29.8226 -1.79578 3.43155
C 32.0528 -2.64915 3.13249
C 30.7399 -2.83301 3.54969
C 38.8349 1.05197 2.22324
C 40.7298 2.37847 1.47864
C 39.3694 2.25719 1.76313
C 39.6989 -0.0367936 2.41715
C 41.5388 1.27554 1.6281
C 41.0526 0.0701876 2.09047
C 3.54917 5.10897 1.45915
C 24.6486 -3.0772 3.41752
C 23.4188 -3.57885 3.83732
C 4.6898 4.29378 1.47575
C 16.3368 1.43966 3.43578
C 16.2289 0.127095 3.86489
C 46.4142 1.43403 2.4382
C -4.59453 3.72759 1.67721
C -5.40398 2.68974 2.15162
C -3.4882 1.24118 2.2462
C -3.23469 3.49599 1.50521
C -2.68255 2.26403 1.7913
H 31.8508 0.539373 2.10093
H 23.3293 1.90285 3.22119
H 38.7218 3.09142 1.62021
H 42.5649 1.37721 1.37493
H 22.5574 -2.94085 3.82778
H 17.2874 1.80114 3.11837
H -6.45562 2.8496 2.28394
H 7.71184 -0.37253 3.94595
N 29.2978 0.534124 2.76018
N 24.3779 4.12539 2.18359
N 20.0066 0.597532 1.2966
N 11.4182 4.93381 1.49658
N 37.4249 0.939821 2.4722
N 51.6232 -1.04582 3.84189
N 41.9685 -0.994767 2.21224
N 32.1948 3.13667 2.60809
N 2.26247 4.61452 1.8513
N 24.7583 -1.72686 2.97064
N 17.3434 -0.734376 3.89811
N 18.5691 -0.332448 3.55794
N 45.5795 0.361838 2.8915
N -5.12856 5.01017 1.34951
N -1.3051 2.04414 1.63755
N -0.480863 3.04735 1.35939
O 28.5907 -2.00144 3.79901
O 29.6258 1.57312 2.07086
O 28.148 0.541645 3.33709
O 25.2343 3.16021 2.19815
O 34.1891 -0.0670709 1.77271
O 39.245 -1.14041 2.93356
O 36.6738 1.98128 2.50688
O 36.8544 -0.206418 2.61014
O 1.64267 -0.896964 3.82287
O -0.381984 -0.070456 3.42332
O 4.62237 3.06452 1.89146
O 10.6626 0.0430327 1.90071
O 2.08846 3.3679 2.12393
O 25.9199 -1.19886 2.75905
O 23.7 -1.00251 2.77461
O 48.3185 0.0877945 2.48797
O 44.298 0.424275 2.74008
O 46.0748 -0.704467 3.43746
O 5.93618 1.25357 3.60571
O 3.06572 -0.0450662 1.58344
68
 Atoms. Timestep: 111017
C 30.2715 -0.606814 2.80126
C 32.5116 -1.51081 2.53004
C 31.6029 -0.465135 2.41726
C 29.8516 -1.84094 3.30642
C 22.6675 2.53372 3.03588
C 30.7507 -2.89507 3.42963
C 38.8982 1.05748 2.2163
C 40.7887 2.42094 1.5205
C 39.4264 2.28299 1.80133
C 39.7744 -0.0261127 2.39166
C 41.6059 1.32011 1.64264
C 41.1289 0.10001 2.07368
C 3.53266 5.16265 1.55967
C 24.6919 -2.97924 3.38477
C 23.4771 -3.41281 3.9081
C 4.61566 4.28281 1.46665
C 16.3589 1.3972 3.34729
C 16.2134 0.0916081 3.78751
C 46.4852 1.49144 2.47311
C -4.60442 3.79361 1.72252
C -5.4037 2.73431 2.16521
C -3.44122 1.34569 2.36489
C -3.22783 3.60676 1.62899
C -2.64592 2.39876 1.96293
H 31.9369 0.470662 2.02248
H 23.3617 1.72416 3.13539
H 38.7742 3.1191 1.6893
H 42.6327 1.43584 1.3943
H 22.6558 -2.72866 3.96394
H 17.3017 1.71042 2.96348
H -6.46901 2.86158 2.23026
H -2.59932 4.41126 1.29922
N 29.3756 0.502165 2.64877
N 24.4634 3.94424 2.1431
N 20.8869 1.1481 3.96002
N 11.3334 4.7355 1.37355
N 37.4824 0.914281 2.4312
N 51.742 -0.954541 3.92033
N 42.0544 -0.959663 2.17738
N 32.2988 3.05646 2.48246
N 11.6922 -0.508371 2.12603
N 24.8274 -1.64613 2.89524
N 17.2835 -0.822352 3.75924
N 18.5215 -0.465329 3.41327
N 45.658 0.382782 2.84866
N -5.16379 5.04558 1.31776
N -1.24771 2.24306 1.92142
N -0.451698 3.30064 1.81776
O 28.608 -2.02909 3.6458
O 29.7176 1.5226 1.93743
O 28.2427 0.550572 3.25873
O 25.3074 2.96774 2.1448
O 34.2841 -0.146956 1.79553
O 39.3314 -1.14269 2.88837
O 36.701 1.93553 2.43625
O 36.9365 -0.246321 2.53783
O 1.71624 -0.805712 3.88914
O -0.308617 0.0279857 3.52307
O 4.49819 3.04666 1.84439
O 10.7131 0.324937 2.24338
O 2.12234 3.55432 2.57243
O 25.9999 -1.14305 2.68609
O 23.7824 -0.912517 2.65971
O 48.4415 0.218154 2.6615
O 44.3774 0.441047 2.69196
O 46.1561 -0.705735 3.3431
O 5.92593 1.26806 3.44955
O 3.03234 0.110257 1.61327
68
 Atoms. Timestep: 121028
C 30.2808 -0.649102 2.73349
C 23.1426 3.66163 2.48527
C 31.6206 -0.520011 2.35844
C 29.8394 -1.88856 3.23546
C 22.6868 2.44005 2.99117
C 30.7262 -2.9604 3.36877
C 38.9089 1.05169 2.21105
C 40.8039 2.45419 1.55442
C 39.4357 2.29916 1.81996
C 39.7904 -0.0352995 2.3827
C 41.6287 1.34944 1.68009
C 41.1511 0.107164 2.08499
C 12.9285 -0.0358898 1.60899
C 15.3214 2.28688 3.35148
C 23.4826 -3.34698 3.92112
C 4.61028 4.28737 1.50425
C 16.3736 1.36437 3.30186
C 16.2035 0.0613435 3.77585
C 46.4915 1.52721 2.51395
C -4.58098 3.85371 1.77357
C -5.38113 2.77689 2.20296
C -3.4097 1.39746 2.43157
C -3.20182 3.68017 1.6998
C -2.61648 2.46991 2.04275
H 31.9692 0.418484 1.95986
H 23.3765 1.62451 3.11147
H 38.7787 3.13842 1.71107
H 42.6625 1.47847 1.45339
H 22.6796 -2.63409 3.98424
H 17.3149 1.64445 2.87798
H -6.44981 2.89222 2.24188
H -2.57427 4.49958 1.37757
N 29.398 0.476959 2.57163
N 24.5161 3.8486 2.1204
N 20.8729 1.05684 3.89442
N 11.3065 4.61879 1.30785
N 37.488 0.8855 2.40352
N 51.7493 -0.894718 3.96351
N 42.0805 -0.957817 2.18998
N 32.353 3.00991 2.39779
N 11.681 -0.401325 2.22493
N 24.8554 -1.62738 2.82707
N 17.2473 -0.890601 3.73467
N 18.4908 -0.569963 3.36145
N 45.666 0.392234 2.85344
N -5.13881 5.10364 1.34155
N -1.21589 2.33712 2.02127
N -0.439418 3.42207 1.95714
O 28.5861 -2.06674 3.55605
O 29.7545 1.48091 1.83554
O 28.2778 0.566065 3.21017
O 25.346 2.85332 2.10198
O 34.3256 -0.20693 1.82091
O 39.3477 -1.16793 2.86445
O 36.6926 1.90392 2.39806
O 36.9588 -0.296637 2.48586
O 1.74212 -0.732909 3.9373
O -0.277868 0.0862093 3.55604
O 4.47036 3.05761 1.92282
O 10.7398 0.474832 2.38483
O 11.4899 -1.60493 2.67052
O 26.0353 -1.12649 2.63598
O 23.823 -0.887541 2.56526
O 48.4574 0.272963 2.75225
O 44.3893 0.44482 2.69326
O 46.1578 -0.71175 3.32098
O 5.94514 1.30778 3.42912
O 3.02973 0.206868 1.64932
68
 Atoms. Timestep: 125350
C 30.2817 -0.654515 2.72857
C 23.1507 3.64901 2.48817
C 31.6248 -0.529348 2.35422
C 29.8402 -1.89413 3.23428
C 22.6956 2.42795 3.00024
C 30.7309 -2.96949 3.37485
C 38.9087 1.04877 2.21055
C 40.803 2.45651 1.55991
C 39.4321 2.30078 1.82251
C 39.7954 -0.0410908 2.382
C 41.6334 1.34892 1.68855
C 41.1587 0.102268 2.08904
C 12.9226 -0.0234608 1.60491
C 15.3236 2.29268 3.34389
C 23.4792 -3.33425 3.9127
C 4.60852 4.2931 1.50774
C 16.3789 1.36304 3.29982
C 16.2068 0.0596995 3.77976
C 46.4889 1.52954 2.51712
C -4.59281 3.86195 1.77647
C -5.38997 2.78183 2.20559
C -3.41042 1.40139 2.43618
C -3.21178 3.68867 1.70129
C -2.62108 2.4763 2.04446
H 31.973 0.408408 1.95008
H 23.3895 1.61223 3.13026
H 38.7708 3.14203 1.71287
H 42.6694 1.47938 1.46666
H 22.6729 -2.61669 3.96998
H 17.3243 1.63745 2.87632
H -6.46016 2.89531 2.24142
H -2.58683 4.51032 1.37745
N 29.3957 0.475461 2.56123
N 24.5277 3.83382 2.12704
N 20.8776 1.04821 3.90612
N 11.3141 4.60753 1.32629
N 37.4863 0.879732 2.39999
N 51.7465 -0.88954 3.96889
N 42.0934 -0.966082 2.19604
N 32.3696 2.99495 2.38456
N 11.6678 -0.383657 2.21577
N 24.8598 -1.6213 2.81437
N 17.2534 -0.899658 3.74597
N 18.5027 -0.583333 3.38256
N 45.6684 0.388869 2.85241
N -5.15411 5.11359 1.34117
N -1.21915 2.34488 2.0199
N -0.450466 3.43557 1.95531
O 28.5833 -2.06992 3.54947
O 29.754 1.47434 1.81723
O 28.2739 0.576586 3.20641
O 25.361 2.83272 2.10363
O 34.3369 -0.217128 1.83715
O 39.3546 -1.17721 2.86074
O 36.6828 1.8999 2.39426
O 36.9648 -0.307817 2.47833
O 1.73925 -0.727391 3.94675
O -0.280173 0.09107 3.55097
O 4.46795 3.06419 1.9354
O 10.7259 0.501477 2.38133
O 11.4686 -1.59394 2.64621
O 26.0406 -1.11893 2.63516
O 23.8276 -0.879691 2.54309
O 48.4617 0.276927 2.76407
O 44.3926 0.438695 2.69122
O 46.164 -0.717583 3.31825
O 5.93069 1.3126 3.42127
O 3.01172 0.223301 1.65277
68
 Atoms. Timestep: 125403
C 30.3146 -0.624443 2.72863
C 23.1928 3.63087 2.48807
C 31.6495 -0.49692 2.35401
C 29.8803 -1.85452 3.23472
C 22.7452 2.41896 3.00051
C 30.7705 -2.91865 3.37537
C 38.9372 1.06394 2.21029
C 40.8219 2.46164 1.5592
C 39.4563 2.30524 1.82196
C 39.8241 -0.0147844 2.38183
C 41.6514 1.36576 1.68793
C 41.1813 0.129854 2.08868
C 12.9282 0.0103971 1.6042
C 15.3794 2.28197 3.34439
C 23.5287 -3.28439 3.91361
C 4.62657 4.27717 1.50696
C 16.4305 1.36367 3.30025
C 16.2647 0.0709023 3.78055
C 46.5279 1.53604 2.51707
C -4.57173 3.84842 1.77591
C -5.36304 2.77674 2.20533