68
 Atoms. Timestep: 0
C 1.07912 1.28868 3.11291
C 2.90546 -0.241474 2.71225
C 2.21185 0.923657 2.38518
C 0.639993 0.488496 4.16749
C -10.6523 33.3147 3.76716
C 1.33369 -0.676505 4.49485
C -1.59218 21.0571 5.38304
C 0.23416 19.5269 4.98239
C -0.459458 20.6921 4.65531
C -3.11145 21.2036 0.720511
C -1.28511 19.6736 0.320184
C -2.41775 20.0386 1.04788
C -7.77972 26.1292 4.9108
C -5.95338 24.599 4.51014
C -6.647 25.7641 4.18307
C -9.29899 26.2756 0.248262
C -6.39251 23.799 5.56504
C -8.60529 25.1106 0.575631
C 0.353103 14.0248 0.087307
C 3.25958 11.548 5.40376
C 2.56596 12.7132 5.07668
C -0.086026 13.2246 1.14188
C 1.74031 11.6947 0.741554
C 0.607673 12.0596 1.46925
H 2.56234 1.54052 1.56095
H -10.1298 32.4012 4.04266
H -7.565 21.3089 3.83109
H -0.762584 18.76 0.595686
H -6.29651 26.381 3.35884
H -6.95013 23.8321 0.123437
H -4.53958 13.33 4.25246
H 2.26284 10.7811 1.01706
N 0.410077 2.49225 2.73169
N -9.06046 33.7425 1.97131
N -4.72641 32.8522 5.53325
N -6.1178 33.1504 0.630095
N -2.26123 22.2607 5.00182
N -6.06913 19.1547 4.24144
N -2.81522 19.2111 2.08628
N -3.12647 18.5626 2.90023
N -8.44877 27.3327 4.52957
N -4.80064 24.2268 3.76919
N -9.00276 24.2831 1.61403
N -1.85798 23.6347 2.42798
N 0.764195 14.2818 5.42319
N -3.04371 11.1758 4.66281
N 0.210205 11.2322 2.50765
N -0.101048 10.5837 3.3216
O 7.05264 0.817229 4.8438
O 0.866806 3.15414 1.77416
O -0.608132 2.83951 3.36934
O -8.45177 32.6902 2.28177
O 4.43632 0.119716 1.02593
O -4.15483 21.5323 1.39683
O -1.8045 22.9226 4.04429
O -3.27944 22.6079 5.63948
O -5.46044 18.1024 4.5519
O -5.69101 19.8881 3.29607
O -2.88634 26.6044 0.924582
O -7.99204 27.9946 3.57204
O -9.46698 27.68 5.16723
O -4.19195 23.1745 4.07965
O -4.42252 24.9602 2.82382
O -1.12941 13.5534 1.8182
O 1.22092 14.9436 4.46566
O -1.33415 15.5757 0.343738
O -2.43502 10.1235 4.97327
O -2.66559 11.9092 3.71744
68
 Atoms. Timestep: 13
C 1.32269 1.88559 3.13745
C 3.23664 0.447431 2.69745
C 2.45203 1.56299 2.33843
C 0.981995 1.06558 4.3171
C -10.586 32.355 3.86971
C 1.77592 -0.0633085 4.66735
C -0.62422 20.5933 5.68235
C 1.28879 19.1593 5.2406
C 0.50494 20.2739 4.88147
C -3.06137 20.9714 0.455519
C -1.14855 19.5394 0.00826782
C -2.26775 19.8436 0.805957
C -7.43557 25.4525 5.15153
C -5.52227 24.015 4.71164
C -6.30636 25.1299 4.35272
C -9.87145 25.8278 -0.0732426
C -5.86294 23.199 5.88366
C -9.07705 24.6983 0.27194
C 0.454064 14.1714 -0.251958
C 4.4638 11.5382 5.7126
C 3.67919 12.6538 5.35358
C 0.113371 13.3513 0.927689
C 2.02652 11.9183 0.480292
C 0.907306 12.2224 1.27795
H 2.72672 2.19132 1.42069
H -9.99415 31.479 4.17909
H -7.54155 20.9029 3.96361
H -0.556744 18.6634 0.317621
H -6.03153 25.7583 3.43476
H -7.36741 23.5185 -0.211491
H -4.36697 13.2821 4.43583
H 2.61835 11.0424 0.789673
N 0.563531 3.02949 2.72349
N -9.10059 32.8588 1.87272
N -3.7474 31.9499 5.81941
N -6.01844 32.2633 0.403499
N -1.38554 21.7049 5.30737
N -5.88826 18.8483 4.41585
N -2.63099 19.1343 1.95787
N -2.80599 18.2528 2.94664
N -8.19471 26.5964 4.73756
N -4.38806 23.7215 3.87982
N -9.43144 24.0308 1.40249
N -1.32816 23.15 2.2677
N 1.79068 14.1204 5.73867
N -2.71315 11.2272 4.88787
N 0.544279 11.5132 2.42996
N 0.368991 10.6317 3.41867
O 8.2475 1.348 5.08158
O 0.914656 3.73179 1.65376
O -0.48425 3.3653 3.42662
O -8.38169 31.8357 2.20096
O 4.69392 0.863489 0.813031
O -4.11707 21.2536 1.22063
O -0.992872 22.3929 4.3414
O -2.72019 21.2961 6.0463
O -5.16929 17.8253 4.7441
O -5.57486 19.5755 3.35618
O -2.60656 26.1099 0.691073
O -7.84358 27.2988 3.66783
O -9.24248 26.9323 5.4407
O -3.71699 22.6958 4.14006
O -4.06548 24.4329 2.82603
O -0.941967 13.6338 1.69217
O 2.14174 14.8225 4.66891
O -1.35288 15.6511 0.0372282
O -1.99424 10.204 5.21611
O -2.39976 11.9543 3.82818
68
 Atoms. Timestep: 10054
C 0.983224 2.09084 2.94792
C 3.17614 1.00397 2.82729
C 2.22913 1.91217 2.32655
C 0.686474 1.34883 4.10567
C -11.6144 30.7263 3.97567
C 1.62249 0.435168 4.61171
C -1.26518 19.0548 5.42896
C 0.998932 18.1233 5.3884
C 0.0264737 18.9895 4.87563
C -3.41388 20.119 0.535918
C -1.16863 19.228 0.513317
C -2.46074 19.2397 1.04919
C -9.12735 23.2905 5.08297
C -6.94616 22.6641 4.17502
C -8.13395 23.4113 4.10864
C -10.7343 24.3638 0.221659
C -6.75557 21.7933 5.25077
C -9.55533 23.6063 0.294888
C -0.356695 15.3695 -0.0208574
C 1.62991 14.6166 -0.113119
C 2.72527 13.2673 5.32759
C -0.653174 14.629 1.14031
C 1.53084 13.5699 1.03583
C 0.285801 13.7261 1.65752
H 2.45527 2.47373 1.43119
H -10.8967 30.0224 4.37047
H -7.98402 19.6559 4.06992
H -0.432315 18.546 0.91592
H -8.29753 24.0752 3.27301
H -5.85499 21.1979 5.31361
H -5.30711 13.8219 4.43089
H 2.25143 12.8746 1.44056
N 0.0471598 3.02838 2.39381
N -10.0281 31.2875 2.16452
N -4.91421 30.1418 5.76588
N -14.1764 31.1502 0.318084
N -2.231 20.0089 4.90407
N -5.93495 18.1 4.83511
N -2.82026 18.3752 2.11357
N -1.94452 17.5417 2.69055
N -2.06118 24.068 4.95654
N -5.93961 22.7907 3.15399
N -9.38599 22.7026 1.37465
N -8.31295 21.9045 1.47299
N 0.522843 14.3529 5.35336
N -3.31186 12.2038 5.19272
N -0.0500255 12.9703 2.80694
N 0.78137 12.0537 3.32242
O 7.81442 1.52412 4.74086
O 0.436221 4.00982 1.63925
O 7.03988 2.87235 2.54872
O -9.10065 30.5447 2.69597
O -9.78987 31.8666 1.02423
O -4.62764 20.1049 1.03509
O -2.02604 20.535 3.72409
O -3.22777 20.4331 5.64104
O -5.05295 17.2349 5.24559
O -5.59251 18.9391 3.90043
O -3.345 24.2888 1.1969
O -10.3528 25.1792 4.27922
O -3.18366 23.6259 5.43319
O -4.85183 22.0736 3.19711
O -6.09986 23.6402 2.18035
O -1.80098 14.7806 1.76334
O 0.887269 15.2205 4.46263
O -0.742238 14.2755 5.61216
O -2.38527 11.4672 5.73411
O -3.06616 12.78 4.05259
68
 Atoms. Timestep: 20456
C 0.979093 1.60852 2.72252
C -12.295 30.1791 2.44869
C -13.1213 31.2569 2.08207
C -7.38725 30.622 3.76787
C -12.7175 29.3217 3.4791
C -13.9454 29.5273 4.12766
C -2.86829 19.2947 5.46319
C -8.0439 18.2058 5.2847
C -1.59647 19.1886 4.87277
C -4.18445 20.2436 0.980956
C -1.9949 19.2085 0.850045
C -3.29031 19.2511 1.39334
C -10.9607 25.8461 0.484577
C -7.91382 23.2881 4.88904
C -9.03161 24.1349 4.96143
C -10.7803 24.8304 1.44778
C -8.75041 24.1212 0.340729
C -9.70372 23.9411 1.34612
C -0.394006 13.8081 4.98588
C 1.75058 12.6209 4.8731
C 0.898244 13.6519 4.44942
C -1.74531 14.8215 0.560963
C 0.383748 13.6608 0.443548
C -0.900485 13.7838 0.989939
H 2.51297 2.02839 1.27184
H -12.0941 28.4865 3.76962
H -8.66871 19.8952 4.10745
H -1.28974 18.467 1.20074
H -9.15216 24.9185 4.22649
H -7.93881 23.4219 0.255219
H -6.12744 14.3183 3.66612
H 1.0368 12.8737 0.793237
N 0.141201 2.7051 2.289
N -11.051 29.9406 1.75628
N -7.0394 28.6352 5.13492
N -6.39526 27.4944 5.42962
N -3.73698 20.3899 5.10671
N -6.73128 18.1367 4.68953
N -3.72529 18.3048 2.35655
N -2.92767 17.3309 2.81144
N -12.1512 26.6639 0.458683
N -6.91149 23.4829 3.8721
N -9.61428 22.8494 2.24633
N -8.62723 21.9425 2.17573
N -1.26679 14.8281 4.43966
N -4.3426 12.4096 4.22101
N -1.37474 12.8547 1.95463
N -0.660665 11.7796 2.32766
O 6.82767 0.962516 4.42893
O 0.661946 3.73748 1.68864
O 6.20857 2.64277 2.39727
O -10.1972 29.0604 2.1947
O -10.7865 30.5584 0.641119
O -5.38886 20.2729 1.50673
O -3.52161 21.077 4.02703
O -5.57612 22.7191 0.486037
O -5.96894 17.0971 4.86613
O -6.30395 19.0959 3.92271
O -4.24309 24.7183 2.46097
O -11.2161 25.9081 5.29031
O -5.92372 26.2017 0.895061
O -5.97666 22.5995 3.67912
O -6.97868 24.5036 3.06895
O -2.92516 14.9494 1.12667
O -0.831108 15.6317 3.51355
O -2.51304 14.9308 4.79821
O -3.51659 11.4972 4.64496
O -4.06209 13.0286 3.11165
68
 Atoms. Timestep: 30470
C 0.970958 2.05626 3.32628
C -12.4437 30.1849 3.0208
C 2.2183 1.84963 2.71545
C 7.82679 1.11564 4.27197
C -12.9372 29.2515 3.94441
C -14.1789 29.4345 4.56849
C -3.0816 19.0138 5.39593
C -1.01375 17.7388 5.16715
C -1.80177 18.8468 4.84224
C -4.36763 20.1142 1.02047
C -2.31252 18.8573 0.793772
C -3.60219 18.9884 1.334
C -10.758 26.2731 0.709665
C -7.94329 23.4551 4.8334
C -8.98708 24.3708 4.98734
C -10.6565 25.165 1.57378
C -8.69539 24.4032 0.397049
C -9.65602 24.2119 1.39295
C -0.754947 13.0611 4.35759
C 1.2886 11.7558 4.04808
C 0.487221 12.8557 3.72978
C -1.17478 12.1483 5.35366
C 0.843305 10.8556 5.02384
C -1.15558 13.1289 0.428096
H 2.58223 2.56508 1.99014
H -12.3557 28.3778 4.17474
H -8.72614 19.6038 4.17841
H -1.71815 17.999 1.05346
H -9.02738 25.2293 4.338
H -7.92845 23.6661 0.258946
H 0.826217 13.5436 2.96848
H 1.44668 9.99923 5.2671
N 0.201168 3.22244 2.97832
N -11.1639 29.9948 2.3887
N -8.1318 30.5779 0.254249
N -7.48853 29.4374 0.534788
N -3.83035 20.1932 5.08063
N -7.00169 17.6145 4.63105
N -4.14903 18.0047 2.19965
N -3.46325 16.9151 2.56232
N -11.8623 27.2007 0.782677
N -6.92159 23.6738 3.8429
N -9.63686 23.066 2.22454
N -8.70441 22.1117 2.09779
N -1.57744 14.1751 3.9519
N -4.79175 11.5368 3.35829
N -1.62864 12.1981 1.38952
N -0.972705 11.0636 1.66614
O 6.69227 1.30884 4.90828
O 0.787684 4.27513 2.49228
O 6.23173 3.21582 3.06583
O -10.3405 29.0853 2.80304
O -10.813 30.7198 1.3697
O -5.5746 20.226 1.53252
O -3.60917 20.8485 3.98721
O -5.43391 22.7937 0.687667
O -6.32474 16.518 4.79054
O -6.43338 18.6033 4.00828
O -11.479 25.0247 2.58292
O -11.0754 26.1986 5.31589
O -5.61959 26.9196 1.44886
O -5.93425 22.8432 3.71097
O -6.9738 24.6991 3.04916
O -3.07356 14.417 0.76027
O -1.07814 15.1211 3.21097
O -2.84686 14.2046 4.22154
O -3.90483 10.7139 3.8131
O -4.54952 12.1275 2.22897
68
 Atoms. Timestep: 40552
C 0.912179 2.56657 3.89571
C -12.8343 30.1342 3.532
C 2.16959 2.37445 3.29833
C 0.412506 1.56493 4.7557
C -13.3611 29.1404 4.36884
C -14.6137 29.3073 4.97493
C -3.60492 18.7483 5.08216
C -1.55432 17.437 4.80432
C -2.32733 18.5799 4.52961
C -4.60861 19.9759 0.904745
C -2.56875 18.6915 0.641002
C -3.86258 18.8156 1.15601
C -10.8662 26.2738 0.967739
C -8.3091 23.3257 4.81981
C -9.34408 24.256 5.0225
C -10.822 25.0878 1.74128
C -8.834 24.3668 0.534939
C -9.83407 24.121 1.49229
C -1.30059 12.6274 3.9284
C 0.721771 11.2837 3.56271
C -0.0416053 12.4359 3.32202
C -1.77319 11.6451 4.83098
C 0.225074 10.317 4.45375
C -1.02127 10.4865 5.0767
H 2.55298 3.1279 2.62576
H -12.7977 28.2347 4.54424
H -9.05505 19.3786 3.93988
H -1.98785 17.8037 0.853252
H -9.35273 25.1646 4.43343
H -7.59679 21.3577 5.31477
H 0.319624 13.1603 2.60465
H 0.799017 9.41978 4.64757
N 0.163772 3.77394 3.61464
N -11.5452 29.9659 2.91646
N -8.4854 30.5612 0.839887
N -7.85474 29.3962 1.05736
N -4.33138 19.973 4.85275
N -7.37398 17.3159 4.2696
N -4.43526 17.7867 1.94436
N -3.77433 16.6558 2.23212
N -11.9535 27.2266 1.08329
N -7.252 23.5914 3.87078
N -9.86026 22.9038 2.22147
N -8.9026 21.972 2.08511
N -2.0942 13.7878 3.57123
N 1.97079 11.0731 2.8734
N -2.02635 11.7509 0.966151
N -1.39114 10.5884 1.18465
O 5.94556 4.00121 0.415729
O 0.783068 4.85014 3.22044
O 6.01371 3.7933 3.67575
O -10.7548 28.9997 3.28704
O -11.1704 30.7521 1.94543
O -5.80073 20.0946 1.44178
O -4.03338 20.7253 3.83138
O -5.66703 22.6778 0.759535
O -6.69805 16.2063 4.37899
O -6.81232 18.3339 3.68923
O -11.6841 24.8805 2.71517
O -11.8547 28.773 0.434323
O -13.0435 26.94 1.73209
O -6.28637 22.7367 3.69375
O -7.26023 24.6775 3.15259
O -3.3921 14.0683 0.491174
O -1.55651 14.7634 2.89771
O -3.37338 13.839 3.79947
O 2.80071 10.1626 3.2921
O -4.88034 11.7579 1.79977
68
 Atoms. Timestep: 50760
C 0.977738 3.34033 4.8718
C 2.94021 1.95937 4.38696
C 2.23235 3.16508 4.26425
C 0.212061 4.69833 0.950718
C 2.3718 0.91235 5.12657
C 0.898149 3.47888 1.06071
C -3.92053 18.4566 4.68681
C -1.91924 17.1024 4.27789
C -2.64259 18.2958 4.12289
C -4.72063 19.7887 0.701343
C -2.50487 16.0461 4.99311
C -4.02051 18.5825 0.842489
C -10.663 26.4381 1.29919
C -8.41533 23.3192 4.79503
C -9.37698 24.2929 5.1037
C -10.7122 25.1708 1.92099
C -8.77365 24.4524 0.659434
C -9.79295 24.1711 1.57589
C -1.95702 11.9151 3.23303
C -0.023117 10.4773 2.77196
C -0.704511 11.6955 2.62696
C -2.51228 10.8901 4.03222
C -0.601264 9.46919 3.55556
C -1.84249 9.66665 4.17939
H 2.64853 3.9661 3.66888
H -13.2394 30.7457 0.526458
H -9.24079 19.1242 3.59542
H -1.9567 15.1252 5.13116
H -9.30924 25.2631 4.63402
H -7.84874 21.2635 5.07308
H -0.274305 12.4631 1.99889
H -0.093885 8.52123 3.66153
N 0.265335 4.58235 4.69165
N 4.21782 1.7945 3.74174
N 0.550764 2.41519 1.79386
N -15.0158 29.5712 1.90906
N -4.60049 19.7247 4.56318
N -7.64732 16.9719 3.71489
N -4.63643 17.5044 1.52937
N -4.02607 16.322 1.69946
N -11.6728 27.45 1.53282
N -7.33304 23.6213 3.89391
N -9.89704 22.8927 2.18244
N -8.97609 21.9345 1.99053
N -2.65721 13.1577 2.99254
N 1.22582 10.2517 2.08689
N -2.44787 8.63906 4.94662
N -1.88282 7.43212 5.09925
O -0.928529 4.85449 1.58689
O 0.908474 5.67432 4.39726
O -1.03498 4.615 4.71076
O -10.9164 29.1548 4.04499
O 4.60837 2.63401 2.8295
O -5.91944 19.8977 1.23165
O -4.25199 20.5701 3.64062
O -5.69217 22.5251 0.766572
O -7.00933 15.8375 3.7512
O -7.0509 17.9992 3.18689
O -11.5835 24.9251 2.86844
O -11.5184 28.6512 1.05917
O -12.8085 27.1605 2.09718
O -6.3986 22.7474 3.65722
O -7.27567 24.7733 3.29388
O -3.65696 11.0693 4.65659
O -2.03081 14.1713 2.47222
O -3.94396 13.2548 3.16217
O 1.99808 9.25636 2.41387
O 1.58276 11.0146 1.09637
68
 Atoms. Timestep: 60776
C 0.639717 5.6935 0.740773
C 2.73231 1.86303 4.87267
C 2.03226 3.07522 4.76532
C 0.0663577 4.60554 1.44737
C 2.02404 3.25031 0.97365
C 0.751556 3.38419 1.54809
C -3.99554 18.4419 4.50907
C -2.0618 17.0181 4.01388
C -2.72981 18.2499 3.92373
C -4.47829 19.7535 0.583662
C -2.6874 15.9603 4.69436
C -4.07382 18.5708 0.670691
C -10.506 26.525 1.4528
C -8.34832 23.431 4.85416
C -9.42556 26.8427 0.612852
C -10.5606 25.2328 2.01551
C -8.5885 24.5824 0.768404
C -9.62648 24.2536 1.64968
C -2.07931 11.8846 2.84335
C -0.126538 10.4565 2.4301
C -0.799438 11.679 2.28869
C -2.67366 10.8347 3.58641
C -0.744368 9.42531 3.15081
C -2.01702 9.60088 3.71482
H 2.49179 3.89667 4.23209
H -13.3869 30.5883 1.05098
H -9.256 19.0782 3.42077
H -2.18173 15.0101 4.78261
H -9.24692 25.3807 4.77485
H -7.77151 21.3687 5.05519
H -0.326394 12.4702 1.72209
H -0.24062 8.47574 3.25664
N 0.0420012 4.4917 5.13322
N 4.03984 1.71569 4.27808
N 7.1479 2.29754 2.22799
N -8.1825 29.384 2.3573
N -4.6189 19.7418 4.44585
N -7.76591 16.8464 3.4167
N -4.72815 17.4894 1.31714
N -4.17338 16.2717 1.41551
N -11.5308 27.5146 1.70824
N -7.24934 23.7809 3.98992
N -9.73781 22.9468 2.19331
N -8.8295 21.9894 1.94193
N -2.75867 13.1421 2.61511
N 1.16019 10.2537 1.81132
N -2.66359 8.54009 4.40118
N -2.14083 7.30582 4.46542
O -1.10839 4.72162 2.02957
O 0.594207 5.46429 4.46751
O -1.27911 7.11957 0.986534
O -11.1979 28.9079 4.44258
O 4.55382 2.66874 3.55949
O -5.92779 19.9406 1.10396
O -4.24327 20.6111 3.55626
O -5.57159 22.584 0.777917
O -7.10783 15.7312 3.54745
O -7.2158 17.8096 2.73865
O -11.4502 24.9484 2.93525
O -11.3258 28.763 1.41033
O -12.7224 27.1673 2.09656
O -6.32854 22.9099 3.6934
O -7.1614 24.9773 3.48834
O -3.84009 10.999 4.17636
O -2.12564 14.1431 2.07779
O -4.03452 13.2722 2.83276
O 1.89903 9.22905 2.11749
O 1.585 11.062 0.885884
68
 Atoms. Timestep: 71002
C 0.585294 5.4692 0.92882
C 2.30994 1.8359 4.85044
C 1.68612 3.09172 4.77659
C -0.0704152 4.39141 1.5748
C 1.82277 2.94222 1.11362
C 0.541408 3.12937 1.65403
C -3.18386 18.7688 4.44758
C -1.33285 17.2359 3.95391
C -1.91747 18.5123 3.8894
C -3.69677 19.8667 0.688116
C -2.03987 16.1997 4.58716
C -3.12918 18.5859 0.752072
C -9.21496 26.7329 1.58047
C -7.28595 23.8974 4.91752
C -8.05562 27.0394 0.847744
C -9.36649 25.4145 2.07089
C -7.30433 24.7482 0.995682
C -8.42365 24.4219 1.76544
C -1.4143 12.045 2.70463
C 0.467269 10.5108 2.32914
C -0.120999 11.7812 2.21025
C -2.10839 11.0049 3.3684
C -0.248154 9.49264 2.9784
C -1.53617 9.72933 3.4829
H 2.20498 3.90493 4.28696
H -11.9915 30.7933 1.16513
H -8.46103 19.3221 3.42477
H -1.59677 15.2157 4.66092
H -8.11476 25.8745 4.81983
H -6.59767 23.9767 0.739432
H 0.423629 12.5644 1.70023
H 0.19233 8.50984 3.0792
N -0.0477247 6.76188 0.750993
N 3.61282 1.63313 4.26242
N 6.93585 2.0582 2.27805
N -6.80036 29.6623 2.41238
N -3.72407 20.1097 4.4114
N -7.12324 16.9968 3.37211
N -3.87171 17.534 1.35069
N -3.42142 16.2717 1.38943
N -10.2184 27.7583 1.79114
N -6.11892 24.2316 4.14337
N -8.61362 23.1015 2.25573
N -7.70421 22.1303 2.06966
N -2.01042 13.3481 2.48743
N 1.76717 10.2499 1.75648
N -2.28467 8.69407 4.10186
N -1.85388 7.4253 4.14367
O 5.83722 4.55674 2.12549
O 0.406969 5.57622 4.54942
O -1.30331 6.95075 1.0386
O -9.99807 29.3604 4.46686
O 4.15282 2.54694 3.51088
O -4.90116 20.0557 1.1849
O -3.23932 20.9951 3.5913
O -4.40022 22.6695 0.933271
O -6.48464 15.8833 3.59074
O -6.56067 17.8938 2.61596
O -10.3723 25.1038 2.84919
O -9.99221 28.9826 1.41799
O -11.3967 27.4783 2.26649
O -5.26107 23.3137 3.80462
O -5.90693 25.4585 3.76471
O -3.29444 11.2163 3.89834
O -1.30711 14.3147 1.97265
O -3.28191 13.5549 2.67902
O 2.41666 9.15679 2.03741
O 2.30382 11.091 0.921627
68
 Atoms. Timestep: 81165
C 0.743419 5.34927 0.879486
C 2.39672 1.82396 4.63851
C 1.81034 3.09938 4.58091
C 0.0396117 4.27152 1.47454
C 1.90486 2.78586 1.02884
C 0.613996 2.99242 1.53576
C -2.74821 18.9018 4.45998
C -0.942842 17.3109 3.97939
C -1.47184 18.6128 3.94191
C -3.27882 19.862 0.821721
C -1.71375 16.2835 4.5493
C -2.7657 18.5576 0.860263
C -8.70958 26.8935 1.67785
C -6.48561 26.2453 0.882709
C -7.48302 27.2136 1.07137
C -8.92665 25.5563 2.08934
C -6.7216 24.9333 1.31426
C -7.93103 24.5826 1.91944
C -1.11653 12.049 2.66164
C 0.717315 10.4487 2.32357
C 0.184905 11.7449 2.21375
C -1.87882 11.02 3.26727
C -0.0648484 9.44379 2.9142
C -1.36256 9.7204 3.37033
H 2.36684 3.9108 4.13086
H -11.168 31.0986 1.06511
H -8.10898 19.4139 3.52265
H -1.31228 15.2801 4.60541
H -7.55103 26.2047 4.89683
H -5.96592 24.1794 1.17139
H 0.781608 12.518 1.74839
H 0.333544 8.44251 3.0148
N -0.091978 4.64546 4.89925
N 3.71348 1.59646 4.09044
N 7.10525 1.92533 2.11453
N -5.89256 29.9876 2.23459
N -3.23961 20.2617 4.43662
N -6.86499 17.0373 3.43466
N -3.56842 17.5202 1.40276
N -3.18249 16.2363 1.38841
N -9.71214 27.9271 1.84126
N -5.49088 24.5695 4.40327
N -8.16352 23.2544 2.36975
N -7.23142 22.2913 2.27153
N -1.65165 13.3809 2.45712
N 2.03255 10.1514 1.80674
N -2.17412 8.70437 3.93816
N -1.81266 7.41355 3.9338
O 6.07839 4.45272 1.99847
O 0.590139 5.62133 4.37207
O -1.11145 6.87032 0.979134
O -9.14441 29.793 4.33167
O 4.28741 2.49433 3.34471
O -4.49012 20.0836 1.28795
O -2.70346 21.1464 3.64857
O -3.89898 22.6802 1.10736
O -6.26964 15.9015 3.65852
O -6.25103 17.9246 2.70733
O -10.0705 25.1967 2.61498
O -9.57176 29.0754 1.24839
O -10.7396 27.7693 2.62337
O -4.61867 23.6479 4.11375
O -5.24497 25.7983 4.05232
O -3.0769 11.263 3.75561
O -0.901438 14.3254 1.96674
O -2.91519 13.6372 2.63503
O 2.62004 9.02181 2.07727
O 2.65109 11.0023 1.04118
68
 Atoms. Timestep: 91167
C 0.790467 5.34228 0.84215
C 2.44406 1.82359 4.60458
C 1.85946 3.09993 4.55145
C 0.0823913 4.26213 1.42642
C 1.94822 2.77733 0.980137
C 0.654906 2.98185 1.48071
C -2.79019 18.9218 4.48917
C -0.998868 17.3171 4.00671
C -1.51496 18.6238 3.97356
C -3.33286 19.8819 0.840919
C -1.78185 16.2951 4.56815
C -2.83163 18.573 0.875663
C -8.70471 26.8703 1.71891
C -6.48112 26.2246 0.920788
C -7.4753 27.1934 1.12079
C -8.92535 25.5307 2.11847
C -6.72198 24.9093 1.33663
C -7.9312 24.5566 1.94063
C -1.1205 12.0708 2.64248
C 0.715115 10.4742 2.29552
C 0.18355 11.7715 2.19778
C -1.88482 11.0358 3.23555
C -0.0692946 9.464 2.8723
C -1.36831 9.73508 3.32804
H 2.42227 3.91484 4.11645
H -11.1254 31.0931 1.01147
H -8.14297 19.4224 3.56553
H -1.39058 15.2882 4.61983
H -7.30056 28.204 0.782061
H -5.97144 24.1537 1.18108
H 0.784948 12.5504 1.74868
H 0.329324 8.46265 2.96271
N -0.0442557 4.64557 4.86679
N 3.76645 1.59783 4.0698
N 7.19339 1.9111 2.04726
N -5.84794 29.9788 2.16973
N -3.26578 20.2861 4.47912
N -6.92278 17.0335 3.46833
N -3.64455 17.5406 1.41178
N -3.26306 16.2552 1.40737
N -9.70658 27.9039 1.88596
N -5.48609 24.5577 4.44615
N -8.16502 23.2258 2.38076
N -7.233 22.263 2.27731
N -1.65442 13.4051 2.45036
N 2.03271 10.1816 1.78133
N -2.17934 8.71221 3.88511
N -1.80229 7.42552 3.89476
O 6.12279 4.44313 1.94963
O 0.638062 5.62021 4.33871
O -1.06122 6.868 0.950886
O -9.09642 29.7939 4.30896
O 4.3509 2.50135 3.33994
O -4.54519 20.1138 1.30093
O -2.73206 21.1671 3.6858
O -3.89587 22.7062 1.1751
O -6.33541 15.8948 3.69767
O -6.30043 17.9149 2.74168
O -10.0716 25.1699 2.63863
O -9.56665 29.053 1.29513
O -10.7338 27.7439 2.668
O -4.6129 23.6377 4.1549
O -5.23956 25.7872 4.09974
O -3.08349 11.2753 3.72477
O -0.908897 14.3486 1.9518
O -2.91412 13.6664 2.64957
O 2.61893 9.04938 2.04352
O 2.65515 11.0397 1.0277
68
 Atoms. Timestep: 100000
C 0.795464 5.34249 0.840097
C 2.44812 1.82385 4.60293
C 1.86395 3.10033 4.5496
C 0.0874132 4.26189 1.42427
C 1.95229 2.7772 0.978353
C 0.659472 2.98149 1.4787
C -2.79283 18.9218 4.49141
C -1.00332 17.3165 4.00891
C -1.51826 18.6236 3.97597
C -3.33603 19.8819 0.842783
C -1.78695 16.2943 4.56964
C -2.83606 18.5726 0.877104
C -8.70304 26.8692 1.72038
C -6.48058 26.2235 0.922173
C -7.47395 27.1924 1.12231
C -8.9241 25.5294 2.12
C -6.72195 24.9078 1.33784
C -7.93076 24.555 1.94197
C -1.11912 12.0721 2.64082
C 0.716022 10.4762 2.29342
C 0.184427 11.7735 2.19595
C -1.8829 11.0363 3.23372
C -0.067989 9.46514 2.86979
C -1.36647 9.73553 3.32573
H 2.42674 3.91555 4.11469
H -11.1217 31.0929 1.0098
H -8.14583 19.4222 3.56836
H -1.39663 15.2871 4.62093
H -7.29882 28.2034 0.783775
H -5.9721 24.152 1.18209
H 0.78545 12.5531 1.7471
H 0.330608 8.46371 2.95989
N -0.0387567 4.64611 4.86475
N 3.77014 1.5984 4.06866
N 7.14997 1.91038 2.04527
N -5.84383 29.9778 2.16768
N -3.26722 20.2863 4.48159
N -6.92764 17.0327 3.47126
N -3.64952 17.5402 1.41276
N -3.26995 16.2544 1.40636
N -9.70414 27.9031 1.88731
N -5.48582 24.5567 4.4477
N -8.16492 23.2239 2.38215
N -7.23359 22.2608 2.27877
N -1.65308 13.4066 2.44922
N 2.03334 10.1845 1.77964
N -2.17704 8.71194 3.88266
N -1.80026 7.42527 3.89145
O 6.12822 4.44253 1.94719
O 0.643315 5.62105 4.33635
O -1.05507 6.86878 0.94936
O -9.09317 29.794 4.30813
O 4.35475 2.50269 3.3391
O -4.54781 20.1142 1.30254
O -2.73377 21.1678 3.68771
O -3.89579 22.7061 1.17828
O -6.34088 15.8936 3.70167
O -6.30491 17.9144 2.74456
O -10.0698 25.1686 2.64062
O -9.56373 29.0529 1.29665
O -10.7313 27.7424 2.66884
O -4.61316 23.6368 4.15689
O -5.23896 25.7865 4.10101
O -3.08104 11.2749 3.72315
O -0.908481 14.3507 1.94987
O -2.91206 13.6679 2.64998
O 2.61964 9.05211 2.0421
O 2.6557 11.0438 1.02659
68
 Atoms. Timestep: 101182
C 0.797516 5.33113 0.846096
C 2.44472 1.8181 4.59783
C 1.86199 3.09573 4.5447
C 0.0873906 4.25085 1.42839
C 1.95127 2.76386 0.983955
C 0.657804 2.96945 1.48266
C -2.77581 18.9323 4.48682
C -0.987189 17.3243 4.00565
C -1.50059 18.6326 3.97284
C -3.31641 19.8846 0.848754
C -1.77309 16.3027 4.56462
C -2.81803 18.5741 0.882956
C -8.67762 26.8808 1.72394
C -6.45428 26.2326 0.928088
C -7.44699 27.2029 1.12767
C -8.90084 25.5407 2.12218
C -6.69807 24.9167 1.34248
C -7.90824 24.565 1.94467
C -1.10963 12.0717 2.64146
C 0.724516 10.4734 2.29511
C 0.194423 11.7717 2.19801
C -1.87547 11.0362 3.23245
C -0.0617336 9.46287 2.86969
C -1.36069 9.73439 3.32416
H 2.42644 3.91067 4.11098
H -11.0917 31.1072 1.0153
H -8.13146 19.4309 3.5664
H -1.38394 15.2947 4.61578
H -7.2702 28.214 0.790038
H -5.94874 24.16 1.18721
H 0.797074 12.551 1.75041
H 0.335735 8.46076 2.95954
N -0.0398307 4.64369 4.85877
N 3.76715 1.59115 4.06528
N -6.52281 31.2312 2.04745
N -5.81231 29.9938 2.1696
N -3.24812 20.2976 4.47662
N -6.91608 17.039 3.46975
N -3.63334 17.5419 1.41689
N -3.25589 16.2555 1.41065
N -9.67754 27.9158 1.89011
N -5.46272 24.5728 4.4431
N -8.14428 23.2337 2.38349
N -7.21418 22.2696 2.28057
N -1.64198 13.407 2.4504
N 2.04214 10.1802 1.78302
N -2.17308 8.71106 3.87933
N -1.79837 7.4239 3.88825
O 6.13276 4.43277 1.94961
O 0.643875 5.6183 4.33208
O -1.05135 6.85928 0.95469
O -9.06521 29.8145 4.30415
O 4.35418 2.49535 3.33733
O -4.52827 20.1182 1.30702
O -2.71241 21.1791 3.68454
O -3.87341 22.7119 1.18411
O -6.33057 15.8992 3.6995
O -6.29096 17.9204 2.74468
O -10.0475 25.1809 2.64111
O -9.53525 29.0662 1.30091
O -10.7064 27.7566 2.66972
O -4.59104 23.6517 4.15324
O -5.21374 25.8023 4.09748
O -3.07385 11.2761 3.72028
O -0.895944 14.3506 1.95272
O -2.90078 13.6692 2.65034
O 2.62729 9.04706 2.04474
O 2.66692 11.0394 1.03159
68
 Atoms. Timestep: 111225
C 0.809019 5.28364 0.86326
C 2.44526 1.80525 4.58192
C 1.871 3.08686 4.53071
C 0.0887767 4.20608 1.43758
C 1.94528 2.70907 0.997728
C 0.650372 2.92122 1.49035
C -2.66735 18.9862 4.47508
C -0.887381 17.366 3.99803
C -1.39159 18.6781 3.96654
C -3.21433 19.8969 0.867262
C -1.6834 16.3481 4.55046
C -2.72546 18.5822 0.900376
C -8.53657 26.9291 1.73691
C -6.31355 26.2687 0.948927
C -7.30038 27.2452 1.14798
C -8.7709 25.5889 2.12868
C -6.56847 24.9533 1.35749
C -7.78394 24.6075 1.95232
C -1.04918 12.0754 2.64349
C 0.777405 10.4683 2.29913
C 0.255447 11.7702 2.20516
C -1.82415 11.0423 3.22626
C -0.0180855 9.46018 2.86622
C -1.31784 9.73754 3.31572
H 2.44292 3.89958 4.10259
H -10.9286 31.1656 1.02818
H -8.04767 19.473 3.56419
H -1.30142 15.3376 4.60138
H -7.11472 28.256 0.81459
H -5.82354 24.192 1.20291
H 0.864854 12.5476 1.76324
H 0.372978 8.456 2.95464
N -0.0236147 4.64495 4.84076
N 3.76895 1.57161 4.05497
N -6.20455 31.3023 2.04834
N -5.63119 30.0609 2.16849
N -3.12944 20.3552 4.4644
N -6.84805 17.0733 3.46724
N -3.55075 17.5545 1.42897
N -3.18236 16.2655 1.42428
N -9.53051 27.97 1.90141
N -5.31999 24.6469 4.43281
N -8.03057 23.2764 2.38605
N -7.10581 22.3073 2.28524
N -1.57366 13.4142 2.45534
N 2.09557 10.1693 1.79125
N -2.13949 8.71802 3.86486
N -1.77252 7.42879 3.87511
O 6.16473 4.39373 1.95306
O 0.667586 5.61724 4.31981
O -1.03151 6.82151 0.968692
O -8.89508 29.9064 4.2933
O 4.36502 2.47438 3.33241
O -4.42661 20.1379 1.32081
O -2.58188 21.2336 3.67702
O -3.75352 22.7309 1.20464
O -6.27129 15.9289 3.69587
O -6.2137 17.9525 2.74726
O -9.92232 25.2346 2.64123
O -9.37729 29.121 1.3168
O -10.565 27.8153 2.67509
O -4.45438 23.7198 4.14272
O -5.0605 25.8753 4.09089
O -3.02391 11.2872 3.7088
O -0.82169 14.3554 1.96229
O -2.8315 13.6822 2.65276
O 2.67299 9.03177 2.05037
O 2.72852 11.0276 1.04539
68
 Atoms. Timestep: 121272
C 0.823115 5.26015 0.86185
C 2.45558 1.79952 4.56895
C 1.88492 3.0826 4.52077
C 0.0978669 4.18182 1.42887
C 1.95253 2.68197 0.990237
C 0.656462 2.89534 1.47886
C -2.62495 19.0142 4.47891
C -0.855405 17.3832 4.00484
C -1.34991 18.6985 3.97453
C -3.18055 19.9094 0.878578
C -1.6603 16.3702 4.55251
C -2.70077 18.5919 0.911368
C -8.46905 26.9489 1.74477
C -6.24699 26.2826 0.95994
C -7.22953 27.2625 1.16207
C -8.71065 25.608 2.12958
C -6.5087 24.9663 1.3617
C -7.72715 24.6233 1.95224
C -1.0324 12.0801 2.64471
C 0.789752 10.4684 2.29829
C 0.272498 11.7724 2.20934
C -1.81276 11.0463 3.21969
C -0.0100941 9.46015 2.85844
C -1.3101 9.73976 3.30568
H 2.46064 3.89574 4.09877
H -10.8501 31.1902 1.01885
H -8.01361 19.4897 3.57609
H -1.28572 15.3568 4.60276
H -7.03814 28.2744 0.835371
H -5.76729 24.2023 1.20482
H 0.885937 12.55 1.77387
H 0.377823 8.45426 2.94375
N -0.00582564 4.64507 4.83043
N 3.78118 1.56502 4.04678
N -6.0375 31.3289 2.03077
N -5.54422 30.0856 2.14689
N -3.07776 20.3867 4.47049
N -6.83103 17.0823 3.4775
N -3.53444 17.57 1.43664
N -3.1713 16.2793 1.43784
N -9.45963 27.9935 1.91013
N -5.25198 24.6789 4.43502
N -7.98008 23.2919 2.38089
N -7.05791 22.3196 2.2807
N -1.55107 13.422 2.46195
N 2.10877 10.1679 1.79266
N -2.13548 8.72091 3.85005
N -1.76762 7.43163 3.86444
O 6.18699 4.37006 1.94027
O 0.688635 5.61622 4.31139
O -1.01202 6.80487 0.97177
O -8.8136 29.9497 4.28374
O 4.38234 2.46922 3.33103
O -4.39315 20.1582 1.32774
O -2.52197 21.2624 3.68612
O -3.69838 22.7444 1.2222
O -6.26482 15.9319 3.70281
O -6.18773 17.959 2.76313
O -9.86527 25.2564 2.63744
O -9.29851 29.1467 1.33204
O -10.4982 27.8388 2.67725
O -4.38964 23.7497 4.1427
O -4.98816 25.907 4.09504
O -3.01376 11.2922 3.69867
O -0.795714 14.3612 1.96965
O -2.80721 13.696 2.66347
O 2.68088 9.02635 2.0467
O 2.74698 11.0283 1.05462
68
 Atoms. Timestep: 131303
C 0.832112 5.24014 0.863232
C 2.46001 1.79457 4.56032
C 1.89227 3.07902 4.51329
C 0.103207 4.16207 1.42643
C 1.95549 2.65922 0.988972
C 0.658779 2.87429 1.47523
C -2.58308 19.0376 4.47912
C -0.820184 17.399 4.00702
C -1.30824 18.7167 3.97722
C -3.14278 19.9177 0.886629
C -1.6314 16.3891 4.55165
C -2.66935 18.5979 0.919266
C -8.40919 26.9679 1.74912
C -6.18749 26.2965 0.966535
C -7.16715 27.2791 1.16962
C -8.65596 25.6269 2.13055
C -6.45449 24.9802 1.36505
C -7.67513 24.6397 1.95299
C -1.01431 12.0823 2.64572
C 0.804183 10.4665 2.29898
C 0.290672 11.7721 2.21202
C -1.79871 11.0491 3.21673
C 0.000352363 9.45907 2.8554
C -1.29971 9.74098 3.30112
H 2.47092 3.89181 4.09408
H -10.7819 31.2133 1.01685
H -7.9799 19.5055 3.58092
H -1.26188 15.3739 4.60135
H -6.9716 28.2913 0.846024
H -5.7154 24.2142 1.20757
H 0.907315 12.5491 1.77951
H 0.385493 8.45202 2.93924
N 0.00476122 4.64508 4.8228
N 3.78659 1.55851 4.04111
N -5.95846 31.3552 2.02394
N -5.46852 30.1105 2.138
N -3.02903 20.4123 4.4709
N -6.80882 17.0926 3.48218
N -3.50872 17.5794 1.44224
N -3.15077 16.2874 1.44601
N -9.39675 28.0153 1.91442
N -5.19251 24.7087 4.43322
N -7.93274 23.3084 2.37909
N -7.01319 22.3337 2.27914
N -1.52841 13.4262 2.46562
N 2.1237 10.1638 1.79554
N -2.12843 8.72323 3.8428
N -1.76276 7.43339 3.85884
O 6.20456 4.35165 1.93536
O 0.701614 5.61532 4.30534
O -0.998399 6.78956 0.975883
O -8.74386 29.9884 4.27754
O 4.39181 2.46297 3.32899
O -4.35515 20.1715 1.33303
O -2.46772 21.286 3.68819
O -3.64674 22.7556 1.2322
O -6.24922 15.9387 3.70575
O -6.15923 17.9675 2.77117
O -9.8124 25.2777 2.63608
O -9.23038 29.1696 1.33993
O -10.4383 27.8619 2.67765
O -4.33262 23.7776 4.14092
O -4.92446 25.9361 4.09437
O -2.99999 11.2968 3.69359
O -0.770353 14.364 1.97485
O -2.78326 13.7039 2.66871
O 2.69212 9.02007 2.04765
O 2.76638 11.0246 1.06163
68
 Atoms. Timestep: 141315
C 0.836019 5.23497 0.862638
C 2.4607 1.79264 4.5548
C 1.89299 3.07713 4.50892
C 0.106091 4.15612 1.42327
C 1.95928 2.65346 0.985792
C 0.661865 2.86814 1.47083
C -2.58202 19.0435 4.48011
C -0.822415 17.4008 4.00963
C -1.30718 18.7196 3.98013
C -3.14156 19.9227 0.891083
C -1.63691 16.3928 4.55241
C -2.67114 18.602 0.923686
C -8.40006 26.9713 1.75155
C -6.17832 26.2986 0.969677
C -7.15707 27.2821 1.17406