68
 Atoms. Timestep: 0
C 6.09288 0.645959 1.63708
C 8.02546 1.60103 0.546033
C 6.6409 1.50889 0.687916
C 5.2432 12.0541 2.44413
C 8.86193 0.830268 1.35345
C 8.31396 -0.032607 2.30255
C 2.2531 3.5772 1.64918
C 4.18568 4.53228 0.558133
C 2.80112 4.44013 0.700015
C 3.0896 2.80637 2.45623
C 5.02215 3.76151 1.36555
C 4.47418 2.89864 2.31465
C 0.338696 9.18281 0.189128
C -0.249561 10.0594 2.83422
C -1.63412 9.96726 2.97611
C 1.1752 8.41198 0.996175
C 0.586908 9.28864 3.64163
C 2.55978 8.50424 0.854599
C 8.41093 10.9367 2.5557
C 10.3435 11.8917 1.46465
C 8.95896 11.7996 1.60653
C 9.24744 10.1658 3.36275
C 11.18 11.121 2.27206
C 10.632 10.2581 3.22117
H 5.9974 2.11403 0.053556
H 9.94475 0.883096 1.26301
H 2.15762 5.04528 0.065656
H 6.10497 3.81434 1.27511
H -2.27762 10.5724 2.34174
H 1.66973 9.34147 3.5512
H 10.0016 0.225786 0.972174
H 12.2628 11.1738 2.18163
N 4.66846 0.594021 1.73645
N 6.06282 2.40041 3.31568
N 7.49964 11.4008 3.08042
N 8.18305 10.8168 3.69015
N 0.828677 3.52527 1.74854
N 2.22304 5.33166 3.32778
N 5.34604 2.15313 3.09252
N 6.02945 1.56909 3.70225
N -1.08572 9.13087 0.28849
N 0.308637 10.9373 1.86772
N 3.43164 7.75873 1.63246
N 4.11505 7.1747 2.24219
N 6.98651 10.8847 2.65506
N 12.5879 0.590643 0.498151
N 14.0247 9.59108 0.262891
N 14.7081 9.00704 0.872621
O 4.7467 11.2557 3.32178
O 3.98805 1.31683 0.976073
O 2.46807 12.0062 2.57997
O 7.31077 2.46745 3.20409
O 5.29279 3.08473 2.5992
O 2.5931 2.00803 3.33388
O 0.148269 4.24807 0.988172
O 0.31447 2.75846 2.59207
O 3.47099 5.3987 3.21619
O 1.45301 6.01597 2.6113
O 0.678699 7.61364 1.87382
O 27.8982 9.7752 3.26426
O -1.59993 8.36407 1.13201
O 1.55659 11.0043 1.75613
O -0.461386 11.6216 1.15125
O 11.2718 9.44598 0.50425
O 6.3061 11.6075 1.89469
O 6.47231 10.1179 3.49859
O 13.8358 0.657679 0.386559
O 9.29703 1.19648 3.51782
68
 Atoms. Timestep: 38
C 8.01991 -2.24851 1.56383
C 9.78748 -1.95619 0.312821
C 8.44067 -2.2422 0.420673
C 17.2145 23.8561 2.64645
C 10.6659 -2.26824 1.24681
C 10.3428 -2.04347 2.48321
C 6.44355 4.0129 1.57264
C 8.17013 3.87757 0.137335
C 6.85595 3.96253 0.332719
C 7.3272 3.96731 2.60624
C 9.04784 3.7848 1.1566
C 8.55426 3.72132 2.38176
C 7.555 13.0706 -0.340885
C 9.83022 20.2105 3.13798
C 8.51311 20.2961 3.3232
C 8.48053 13.0332 0.713717
C 10.7473 20.1733 4.19748
C 9.79602 12.9467 0.525221
C 18.831 21.2897 2.71375
C 20.5662 21.3872 1.34297
C 19.277 21.3145 1.52733
C 19.7809 21.2586 3.79154
C 21.4794 21.3585 2.39959
C 21.0899 21.3825 3.61692
H 7.81779 -2.1709 -0.425362
H 11.7329 -2.33793 1.07413
H 6.14719 3.99084 -0.4958
H 10.1211 3.76301 1.07825
H 7.8024 20.3247 2.49173
H 11.7816 20.1062 4.07695
H 11.0496 -4.66333 0.691496
H 22.5119 21.2911 2.27931
N 6.69259 -2.18713 1.69101
N 10.8704 5.31417 3.84348
N 18.6969 23.8913 3.47796
N 18.976 16.5576 -0.501231
N 5.10557 4.09682 1.70446
N 9.12077 11.1002 3.80375
N 9.30599 3.34336 3.43485
N 10.364 2.97051 4.06283
N 6.21455 13.1564 -0.211241
N 10.2272 20.1599 1.88289
N 10.6819 12.9129 1.50519
N 11.558 12.8677 2.4236
N 17.4424 21.3877 2.84212
N 13.4682 -4.65801 0.0862918
N 21.3892 14.126 -0.2692
N 22.2993 14.0336 0.615042
O 16.045 23.8081 3.78741
O 5.87788 -2.13266 0.730625
O 13.7534 23.8609 2.82006
O 11.9791 4.74324 3.59784
O 10.2188 5.39387 2.79606
O 6.90848 3.91291 3.71191
O 4.30177 4.12766 0.707679
O 4.67163 4.14174 2.83435
O 10.3412 11.0175 3.62516
O 8.29112 11.0681 2.85565
O 8.10861 13.1416 1.85864
O 37.826 20.4617 3.69531
O 5.78382 13.2009 0.919425
O 11.4508 20.08 1.70811
O 9.39871 20.1943 0.909851
O 18.8452 14.189 0.0975354
O 16.5923 21.248 1.82211
O 17.0907 21.5816 4.03717
O 14.6907 -4.73793 -0.0894516
O 13.1998 2.62542 4.02052
68
 Atoms. Timestep: 10054
C 8.09966 0.758726 1.52471
C 9.9752 0.894511 0.0715803
C 8.63243 0.855583 0.281697
C 8.92611 0.695198 2.59485
C 10.7917 0.83882 1.17828
C 10.2666 0.719467 2.42289
C 6.74877 3.60928 1.69125
C 8.18168 3.43853 -0.108736
C 6.94877 3.60693 0.374491
C 7.80301 3.42585 2.54285
C 9.22408 3.27287 0.752955
C 9.03568 3.26399 2.07169
C 8.26188 10.7514 0.0264846
C 10.5633 15.5885 3.29566
C 9.22984 15.4488 3.5004
C 9.07247 10.635 1.11432
C 10.9414 11.0166 -0.270025
C 10.4092 10.7635 0.985447
C 17.7505 16.2683 2.58409
C 19.8689 16.719 1.56981
C 18.5508 16.5545 1.43468
C 18.2678 16.1181 3.89249
C 20.3737 16.5605 2.8925
C 19.5844 16.2555 4.06549
H 8.41933 5.35858 4.18037
H 11.8289 0.850773 1.04035
H 6.14377 3.74983 -0.279854
H 10.1748 3.12719 0.396936
H 8.59987 15.5308 2.67621
H 11.9699 11.1197 -0.393538
H 11.1504 -1.35687 0.497052
H 21.3891 16.6746 3.02002
N 6.73051 0.734229 1.67851
N 10.9076 5.44878 3.46401
N 18.0264 18.6851 3.528
N 19.3395 18.7358 3.4182
N 5.47728 3.79749 2.13867
N 8.80612 7.87487 3.25255
N 10.0789 3.08075 2.95514
N 11.3088 2.95348 2.54218
N 6.89987 10.6261 0.152991
N 11.0783 15.8494 1.99957
N 11.1918 10.6461 2.08353
N 12.497 10.7713 1.99569
N 16.3954 16.1392 2.39354
N 13.7169 -1.02061 0.433021
N 19.6557 11.6614 0.644549
N 20.937 11.7866 0.84972
O 15.3985 18.6786 3.77053
O 5.95322 1.21176 0.779032
O 6.17708 0.166552 2.68827
O 12.1567 5.52539 3.24572
O 10.1369 5.4888 2.47639
O 7.63448 3.3846 3.79387
O 4.44454 3.58032 1.54486
O 5.31149 4.27216 3.11426
O 9.97581 7.83415 2.76925
O 7.82316 7.924 2.46365
O 8.5767 10.4316 2.28928
O 37.2133 15.5527 4.01057
O 6.39068 9.95704 1.10413
O 12.3264 15.9833 1.81237
O 10.3205 15.9545 0.996324
O 17.0868 11.385 0.190163
O 15.9893 15.8433 1.35567
O 15.5245 16.3481 3.21315
O 14.9527 -0.853123 0.566207
O 13.6732 3.52051 3.9852
68
 Atoms. Timestep: 20075
C 8.12944 1.47932 2.12613
C 10.2178 1.94008 1.06072
C 8.85207 1.98414 1.07674
C 14.7399 15.0072 3.12588
C 10.8649 1.35367 2.09642
C 16.0984 14.9479 3.11505
C 6.26264 4.48775 1.62363
C 7.74111 5.0347 -0.205729
C 6.47446 4.87274 0.304894
C 7.33613 4.23373 2.43287
C 8.79783 4.82018 0.632808
C 8.59874 4.40759 1.94397
C 8.21751 11.173 -0.037276
C 10.0614 13.6382 3.13369
C 8.79081 14.0451 3.28871
C 9.02446 11.0164 1.14209
C 10.753 10.3586 -0.307945
C 10.3042 10.6114 1.01369
C 16.6929 12.5294 1.97353
C 18.8463 13.1201 1.22112
C 17.4981 13.1399 1.07845
C 17.2712 11.9013 3.04143
C 19.4061 12.4843 2.27787
C 18.6235 11.8767 3.18825
H 8.34397 2.47138 0.303633
H 11.9167 1.30086 2.09397
H 5.65148 5.05189 -0.323773
H 9.7734 4.9504 0.25803
H 8.15781 14.171 2.46413
H 11.7376 10.044 -0.416408
H 16.9204 13.6237 0.258596
H 20.4465 12.4597 2.39483
N 6.72565 1.60537 2.16102
N 10.9499 2.5176 0.0184784
N 16.7408 14.2894 4.13501
N 17.9612 11.1038 -0.437579
N 4.95705 4.32103 2.11206
N 8.05761 8.51053 3.05116
N 9.66481 4.07595 2.76122
N 10.9175 4.14942 2.30925
N 6.89911 11.5882 0.104567
N 10.5483 13.4103 1.79636
N 11.0911 10.4682 2.1661
N 12.3441 10.0674 2.07753
N 15.3185 12.5844 1.78691
N 13.7138 -0.411322 0.286683
N 19.0645 8.1408 -0.330481
N 20.3717 8.10307 -0.12643
O 14.0893 14.4268 4.06695
O 6.09292 1.9226 1.09304
O 6.07322 1.54094 3.27204
O 12.2277 2.48475 0.00269656
O 10.4626 6.20908 3.66909
O 7.16912 3.77845 3.64052
O 4.03604 4.06292 1.30892
O 4.61125 4.50052 3.31833
O 9.21954 8.4455 2.50324
O 7.07912 8.87154 2.3098
O 8.57733 11.2889 2.31743
O 36.1887 15.2901 3.73163
O 6.18818 11.326 1.14872
O 11.7627 13.0456 1.67204
O 9.85002 13.5568 0.708294
O 16.5458 11.3629 3.94917
O 14.7548 13.3419 0.96831
O 14.542 11.8159 2.37337
O 14.9568 -0.289146 0.520328
O 13.3494 3.15208 3.8044
68
 Atoms. Timestep: 30103
C 8.401 2.10215 1.99569
C 10.5116 2.46961 0.849314
C 9.14647 2.64304 0.934037
C 14.4231 13.1101 2.98311
C 11.1252 1.72117 1.8497
C 15.7854 12.926 2.90821
C 5.01643 5.32639 0.9333
C 5.87502 7.51958 2.98269
C 4.72927 7.25424 3.84842
C 6.29826 5.24163 1.38164
C 7.10238 7.3544 3.51253
C 7.41244 5.48029 0.573726
C 8.01319 10.7456 0.299758
C 9.61692 12.0165 3.09406
C 8.38954 12.4898 3.28462
C 8.68554 10.0213 1.4
C 10.464 9.76263 -0.0804274
C 9.91563 9.52089 1.20475
C 17.2199 9.04664 3.14575
C 19.2738 10.0753 2.52009
C 17.9053 10.0175 2.4886
C 17.9189 8.07374 3.83094
C 19.9655 9.10535 3.20184
C 19.291 8.10553 3.8587
H 8.66875 3.22057 0.169732
H 12.1754 1.58935 1.80491
H 32.8313 7.35124 3.46798
H 7.9805 7.50097 2.92121
H 2.46981 1.23302 2.52228
H 11.413 9.38382 -0.226765
H 17.3593 10.7831 1.9933
H 21.0238 9.12209 3.21792
N 7.01525 2.33608 2.05131
N 11.2706 3.04885 -0.238374
N 16.3935 12.161 3.91225
N 17.7059 11.9787 3.91727
N 3.86422 5.05296 1.70311
N 5.77622 7.91977 1.64279
N 8.67863 5.3854 1.10504
N 9.78036 5.64991 0.388542
N 6.74733 11.2795 0.48461
N 10.1908 12.2328 1.79491
N 10.5757 8.85133 2.26423
N 11.8005 8.36188 2.10477
N 15.829 9.04647 3.09415
N 19.9683 11.1034 1.84317
N 20.1675 5.5887 0.328213
N 21.4989 5.57507 0.389717
O 13.7438 12.5414 3.96773
O 6.36076 2.70014 1.02684
O 6.35896 2.26313 3.14524
O 12.3236 4.28785 3.83883
O 10.5602 5.39101 3.13848
O 6.47509 4.89408 2.59324
O 31.7907 4.81807 1.23634
O 3.855 5.0313 2.94674
O 6.82175 8.09073 0.906403
O 33.6782 8.10802 1.16121
O 8.19282 9.85038 2.59798
O 29.8234 1.96602 3.9167
O 35.0377 10.8237 1.41782
O 11.3641 11.7541 1.63209
O 4.22382 1.09131 0.797961
O 17.4849 5.61197 0.250135
O 15.0988 10.05 2.91755
O 15.1715 7.99082 3.09781
O 21.235 11.2199 2.00171
O 19.3816 11.9338 1.05425
68
 Atoms. Timestep: 40131
C 10.2485 2.62042 1.15314
C 12.3578 3.24748 0.121115
C 10.9801 3.28316 0.114397
C 10.8882 1.87688 2.25706
C 12.9849 2.51824 1.20345
C 12.2694 1.83381 2.27538
C 32.0597 5.17606 1.24499
C 32.4919 7.02621 3.0941
C 31.7732 5.97003 0.0692999
C 4.78348 4.87382 1.47358
C 5.19377 6.71175 3.34721
C 5.77227 5.37084 0.554799
C 7.58052 10.3324 -0.0878311
C 9.56373 10.6746 3.06396
C 8.3327 11.2214 2.9285
C 7.79425 9.43486 1.07247
C 10.023 9.21168 0.215548
C 9.02472 8.87163 1.21126
C 17.4575 7.6494 3.29291
C 19.8262 7.92951 3.50136
C 18.6404 8.19277 2.84972
C 17.7381 6.24943 0.450074
C 20.0849 6.5436 0.656523
C 18.9148 5.98343 1.11398
H 10.1977 4.37875 3.30956
H 14.0499 2.48619 1.22009
H 30.4869 6.77691 3.84552
H 5.95998 7.02849 2.67764
H 3.00907 2.01608 2.10592
H 10.9714 8.78051 0.328118
H 18.6396 8.81318 1.97843
H 20.9873 6.33571 1.17332
N 8.84146 2.68551 1.11941
N 12.8456 4.50341 3.01369
N 18.0478 10.9914 3.33869
N 19.3768 10.9509 3.41956
N 30.9999 4.73299 2.11248
N 32.1528 7.81474 1.89132
N 7.11029 5.07469 0.839244
N 8.1081 5.48901 0.0553543
N 34.6587 11.4783 3.68446
N 10.5988 10.9992 2.06955
N 9.24613 8.01144 2.32013
N 10.4287 7.451 2.50682
N 16.269 7.95396 2.59514
N 21.0362 8.48659 3.02222
N 18.8924 5.15771 2.24911
N 19.9965 4.86799 2.9372
O 15.3593 11.089 3.22196
O 8.2393 2.75196 -0.0353223
O 8.16546 2.7186 2.23409
O 14.135 4.45185 3.04583
O 12.3001 5.16701 2.01853
O 5.15185 4.15422 2.49245
O 29.7741 5.00737 1.819
O 31.2376 4.0881 3.1956
O 33.0144 8.21081 0.980519
O 30.9182 8.13383 1.70809
O 6.88864 9.13654 1.9993
O 29.2471 2.29971 2.62502
O 34.0029 10.7574 0.591133
O 11.7248 10.417 2.1888
O 5.32909 1.96404 1.05715
O 16.6433 5.72712 0.906279
O 16.1515 8.94048 1.81651
O 15.2664 7.21274 2.66433
O 22.1328 8.29459 3.6649
O 21.0748 9.18891 1.93994
68
 Atoms. Timestep: 50156
C 10.6812 3.01034 1.98433
C 12.7429 3.94625 1.22252
C 11.3713 3.96763 1.27379
C 11.3907 2.00224 2.63975
C 13.433 2.9551 1.90329
C 12.7619 1.98776 2.61517
C 29.5247 5.92143 0.992617
C 29.9169 7.69469 3.23604
C 29.32 7.10462 0.298796
C 30.7912 5.33508 0.954213
C 31.162 7.10575 3.22095
C 31.813 5.93097 0.253055
C 7.14196 9.48045 3.24594
C 9.52841 9.19973 3.29171
C 8.40232 9.87966 2.85916
C 7.45019 8.39365 0.457617
C 9.81756 8.13381 0.507722
C 8.56723 7.72122 0.909505
C 18.2992 6.63201 2.89492
C 20.6858 6.702 2.96074
C 19.4819 7.21889 2.53263
C 18.3437 5.47987 3.68458
C 21.1378 5.58257 0.113236
C 19.9716 4.96932 0.474246
H 10.8371 4.72671 0.749363
H 14.491 2.93768 1.883
H 28.3584 7.55888 0.320102
H 31.9485 7.54882 2.65733
H 3.9231 1.67898 2.18443
H 10.676 7.60549 0.855866
H 19.4627 8.08069 1.90522
H 22.058 5.17766 0.454793
N 9.26354 3.07962 2.02793
N 13.4376 4.92658 0.472351
N 18.0357 10.0162 3.33948
N 19.3561 10.018 3.4312
N 28.4263 5.31395 1.67075
N 29.6828 8.90554 2.52567
N 5.19812 5.29005 0.209855
N 5.75945 5.74899 3.09023
N 33.8788 10.1807 2.73537
N 10.8129 9.59262 2.83949
N 8.40843 6.63915 1.79344
N 9.44753 6.02153 2.34451
N 17.0778 7.20633 2.4376
N 21.8899 7.31867 2.5732
N 19.9799 3.81591 1.28498
N 21.1098 3.27734 1.73914
O 15.3554 10.071 3.27805
O 8.64962 3.68936 1.03427
O 8.62232 2.59032 3.08574
O 14.7137 4.82658 0.290944
O 12.3751 5.91652 3.57002
O 31.0332 4.21004 1.57664
O 27.2216 5.7125 1.44056
O 28.5936 4.3758 2.54111
O 30.5825 9.41503 1.74785
O 28.5352 9.52438 2.62883
O 6.28643 7.99913 0.870962
O 29.4274 1.9943 1.76487
O 32.6968 10.0292 3.24162
O 11.8725 8.97498 3.25189
O 10.5198 10.5594 1.98507
O 17.6891 4.8754 0.376963
O 17.0806 8.13012 1.53375
O 15.9417 6.88248 2.96025
O 23.0245 6.81826 2.93062
O 21.8753 8.39827 1.84844
68
 Atoms. Timestep: 60174
C 11.6151 2.59577 1.93389
C 13.3303 4.19585 1.34665
C 11.9934 3.84645 1.46294
C 12.6046 1.69663 2.31896
C 14.3044 3.27783 1.70608
C 13.9444 2.02927 2.18967
C 28.1561 6.5335 0.570277
C 28.9693 8.20005 2.90669
C 27.8059 7.5671 3.31366
C 29.3621 5.87006 0.646966
C 30.1552 7.50453 2.95497
C 30.1873 6.20294 3.43093
C 7.44289 9.86904 0.662908
C 9.85329 10.1073 0.694145
C 3.9365 1.87049 0.433256
C 7.57396 8.57918 1.17759
C 9.96272 8.8226 1.2046
C 8.82403 8.06684 1.45692
C 19.1995 5.49291 2.45483
C 21.4998 4.84231 2.81938
C 20.5618 5.78453 2.43387
C 18.7771 4.23059 2.88037
C 21.0624 3.58973 3.23138
C 19.7069 3.28267 3.26431
H 11.2418 4.5274 1.13993
H 15.3353 3.53406 1.60423
H 26.8857 8.09232 3.26064
H 31.0412 7.95369 2.58433
H 3.52295 2.57521 3.23077
H 10.9302 8.42369 1.41813
H 20.8969 6.74532 2.10395
H 22.107 3.14387 0.342651
N 10.2242 2.26377 2.04137
N 13.7009 5.49063 0.876602
N 19.576 9.84981 2.58979
N 20.884 10.0875 2.42634
N 26.9343 5.90667 0.972707
N 28.9307 9.5353 2.40767
N 31.2997 5.4823 3.45452
N 5.00653 5.93079 2.8954
N 33.6435 10.4078 0.335146
N 6.36746 2.11799 0.407183
N 8.91341 6.77132 1.9951
N 10.0937 6.26385 2.38394
N 18.2696 6.47933 2.01404
N 22.8949 5.15494 2.76987
N 19.5802 2.29235 0.464285
N 25.0895 10.073 0.809341
O 16.938 9.28739 2.82953
O 9.34818 3.19927 2.11774
O 14.4647 9.806 2.00447
O 14.924 5.74776 0.526765
O 12.8502 6.44378 0.812628
O 29.4426 4.67918 1.18179
O 25.9061 6.6321 1.21692
O 26.7948 4.63758 1.04263
O 30.0207 10.1894 2.15439
O 27.7961 10.1126 2.16647
O 6.52253 7.84337 1.42351
O 28.5529 2.47139 2.83583
O 32.5379 9.87503 0.749221
O 12.1695 10.29 0.300032
O 5.97988 3.10802 3.41094
O 17.5067 3.92026 2.92614
O 18.6867 7.54002 1.37605
O 17.0099 6.40205 2.2815
O 23.7773 4.22652 2.92054
O 23.3031 6.36048 2.5511
68
 Atoms. Timestep: 70270
C 11.8543 2.79645 1.11443
C 13.5937 4.48848 0.959656
C 12.2618 4.12465 1.11542
C 12.8205 1.81117 0.870242
C 14.5419 3.4975 0.77174
C 14.17 2.16306 0.737002
C 27.8192 6.74314 0.544268
C 28.8625 8.33332 3.12281
C 27.6396 7.74365 3.42003
C 28.9852 5.97114 0.48418
C 29.9949 7.54536 3.06733
C 29.9391 6.18572 3.31243
C 7.58567 9.41549 1.26862
C 9.88901 10.1771 1.36783
C 3.90788 1.90354 1.19947
C 8.03038 8.10642 1.5334
C 10.3009 8.88678 1.68605
C 9.36575 7.86206 1.79607
C 19.1421 5.25924 2.64521
C 21.3007 4.38887 3.32719
C 20.4754 5.4543 2.99491
C 18.6092 3.96543 2.66506
C 20.7607 3.10333 3.35613
C 19.4247 2.88566 2.99905
H 11.524 4.87004 1.20763
H 15.5652 3.76891 0.619035
H 27.0168 8.71448 0.320761
H 30.8972 7.97547 2.74508
H 3.59032 2.9051 0.967268
H 11.3499 8.68508 1.85368
H 20.8776 6.45241 3.00627
H 21.6293 2.64345 0.541674
N 10.4713 2.48344 1.38459
N 13.9885 5.8619 0.975678
N 19.7675 9.70644 0.571733
N 21.0775 9.9849 0.540957
N 26.5524 6.17236 0.88204
N 28.9319 9.71506 2.78617
N 31.0893 5.37826 3.20164
N 5.0076 5.91241 2.90275
N 33.4648 9.69625 1.07406
N 6.24558 2.6524 1.17273
N 9.75451 6.57034 2.19354
N 10.9077 6.39009 2.84257
N 18.3658 6.38893 2.24731
N 22.9462 5.00388 0.478071
N 18.3419 1.58395 2.96508
N 24.2505 9.04931 3.23078
O 17.0862 9.10367 0.752311
O 9.6716 3.41149 1.82158
O 14.6376 9.81041 1.30869
O 15.1578 6.20749 0.553807
O 13.2318 6.78013 1.48487
O 28.9638 4.71219 0.789701
O 25.6224 6.92072 1.39196
O 26.3065 4.91642 0.665348
O 25.4413 1.81221 2.81616
O 23.2675 1.75382 2.28774
O 7.20019 7.09392 1.56554
O 28.4364 2.27523 0.584147
O 32.5687 8.85323 1.45235
O 7.43303 2.34606 0.755783
O 5.94737 3.89832 1.34865
O 17.3599 3.75073 2.33162
O 18.9568 7.47415 1.86896
O 17.0841 6.40641 2.3917
O 23.7089 4.09879 1.00909
O 23.2022 5.78215 3.28403
68
 Atoms. Timestep: 80309
C 11.9294 2.804 1.12922
C 13.6091 4.55615 1.0146
C 12.2829 4.14346 1.05384
C 12.9437 1.84361 1.08714
C 14.6125 3.59251 1.03984
C 14.2901 2.23549 1.07426
C 27.476 6.20866 2.90579
C 28.8079 8.19052 2.46046
C 27.572 7.5936 2.71978
C 28.6481 5.44407 2.85931
C 29.9222 7.3845 2.30635
C 29.8627 6.02884 2.57094
C 7.52392 9.45469 1.25504
C 9.85183 10.1424 1.32174
C 3.9098 2.00273 1.20286
C 7.93131 8.13106 1.48041
C 10.2199 8.83146 1.61548
C 9.25785 7.83508 1.71903
C 19.1643 5.23839 3.1326
C 21.5471 4.90734 0.86661
C 20.6787 5.91854 0.476273
C 18.7215 3.90638 3.12675
C 21.116 3.5843 0.791219
C 19.8191 3.2801 0.369932
H 11.5039 4.8529 0.986477
H 15.637 3.90087 1.03406
H 26.6904 8.20498 2.77543
H 30.8247 7.79708 1.92739
H 3.61056 3.01234 0.984772
H 11.2591 8.58733 1.7591
H 21.0177 6.93836 0.522125
H 21.7585 2.79671 1.11694
N 10.5431 2.45456 1.29327
N 13.9351 5.9502 0.950392
N 19.8843 9.71214 1.12681
N 21.1868 10.0097 1.03467
N 26.2062 5.61084 3.20017
N 28.9336 9.60809 2.35532
N 31.0232 5.23669 2.58388
N 5.08976 5.79892 2.68386
N 33.2868 9.75935 1.02253
N 6.29074 2.64894 1.07076
N 9.61087 6.52032 2.0768
N 10.7738 6.28381 2.6869
N 18.3523 6.32384 2.66112
N 22.8343 5.24897 1.3928
N 19.0889 1.94539 0.341693
N 24.7054 9.39288 0.763508
O 17.2158 9.03488 1.06225
O 9.71149 3.3319 1.77052
O 14.6825 9.72474 1.01279
O 15.0936 6.33901 0.530206
O 13.1107 6.85307 1.3745
O 28.6448 4.18827 3.19173
O 25.4409 6.75311 0.449974
O 26.036 4.32338 3.16445
O 25.4972 1.70217 2.10254
O 23.3609 1.90164 2.69277
O 7.06282 7.15657 1.52674
O 28.1899 2.41899 1.39203
O 32.5028 8.89275 0.479286
O 7.47255 2.26228 0.709544
O 6.01749 3.91112 1.0185
O 17.4986 3.60667 2.76844
O 18.8995 7.47627 2.44048
O 17.1279 6.15161 2.27989
O 23.7846 4.3709 1.45687
O 23.0586 6.45144 1.83481
68
 Atoms. Timestep: 90337
C 11.8981 2.80952 1.17244
C 13.584 4.54796 1.0175
C 12.2556 4.14302 1.0478
C 12.9105 1.84319 1.15565
C 14.585 3.57965 1.08448
C 14.2593 2.22533 1.14081
C 27.4227 6.2092 2.88649
C 28.7416 8.19467 2.43317
C 27.5104 7.59576 2.70855
C 28.599 5.44865 2.81538
C 29.8556 7.39019 2.24792
C 29.8063 6.03551 2.50866
C 7.54524 9.44189 1.17648
C 9.8687 10.1399 1.24233
C 3.98004 2.05349 1.12317
C 7.96284 8.12307 1.40585
C 10.2429 8.83456 1.54859
C 9.28734 7.83673 1.65951
C 19.1182 5.19166 3.18445
C 21.501 4.93534 0.912173
C 20.6081 5.91906 0.510159
C 18.7071 3.85166 3.20244
C 21.1013 3.60211 0.859078
C 19.8118 3.26296 0.449614
H 11.4784 4.85135 0.929808
H 15.6104 3.8814 1.09834
H 26.6288 8.20796 2.78645
H 30.7504 7.803 1.84989
H 3.67454 3.05849 0.896102
H 11.2823 8.59506 1.69335
H 20.9225 6.94526 0.541886
H 21.7583 2.83339 1.19846
N 10.5122 2.47587 1.36825
N 13.915 5.93831 0.92449
N 19.7941 9.63796 1.21934
N 21.0974 9.91625 1.07524
N 26.1602 5.60554 3.19937
N 28.866 9.6122 2.34735
N 30.9699 5.24601 2.50123
N 5.12466 5.80875 2.60632
N 33.2188 9.73522 0.931534
N 6.36034 2.70163 0.970001
N 9.64574 6.52672 2.02943
N 10.7984 6.29726 2.65863
N 18.2792 6.24898 2.69962
N 22.7765 5.31451 1.4343
N 20.0525 1.92125 0.467733
N 24.679 9.33836 0.930054
O 17.1221 8.97813 1.14969
O 9.69094 3.36691 1.84229
O 14.5961 9.67324 1.16895
O 15.0726 6.31094 0.48785
O 13.107 6.85488 1.35349
O 28.6103 4.19354 3.14528
O 25.3683 6.75173 0.416489
O 26.0101 4.31665 3.21052
O 25.4774 1.76166 2.05712
O 23.3757 1.96532 2.75874
O 7.10521 7.14138 1.436
O 28.1525 2.43489 1.3246
O 32.4535 8.86585 0.37283
O 7.53474 2.31236 0.582515
O 6.08423 3.96176 0.905489
O 17.4909 3.5204 2.85472
O 18.7855 7.42437 2.51881
O 17.1024 6.0255 2.21711
O 23.741 4.45504 1.53212
O 22.9737 6.52952 1.85164
68
 Atoms. Timestep: 100000
C 11.8697 2.79662 1.2211
C 13.5783 4.53474 1.01559
C 12.2423 4.13364 1.07008
C 12.8753 1.81739 1.178
C 14.5721 3.55275 1.07726
C 14.2322 2.19368 1.14127
C 27.433 6.22307 2.88675
C 28.7602 8.22188 2.41791
C 27.5253 7.61779 2.70498
C 28.6122 5.46167 2.8131
C 29.8732 7.4108 2.22425
C 29.8221 6.05055 2.49214
C 7.59469 9.46476 1.14076
C 9.92751 10.1697 1.20836
C 4.03559 2.08146 1.08301
C 8.00508 8.14113 1.38003
C 10.2928 8.85904 1.52869
C 9.32929 7.85758 1.64762
C 19.1057 5.14703 3.17413
C 21.4988 4.95219 0.919238
C 20.5884 5.91319 0.500532
C 18.7169 3.79088 3.21084
C 21.1211 3.60264 0.887793
C 19.8364 3.22374 0.483698
H 11.4701 4.85046 0.947702
H 15.6039 3.85017 1.07873
H 26.6447 8.23427 2.79178
H 30.7694 7.82541 1.81595
H 3.73526 3.08902 0.843589
H 11.3333 8.62021 1.67657
H 20.8858 6.95212 0.517148
H 21.7899 2.84978 1.24116
N 10.4816 2.47461 1.47161
N 13.9219 5.93061 0.910912
N 19.7624 9.59654 1.20692
N 21.0649 9.86134 1.03465
N 26.1667 5.61217 3.20494
N 28.8901 9.64731 2.33321
N 30.9877 5.25909 2.47732
N 5.14353 5.82086 2.5751
N 33.2668 9.75645 0.89009
N 6.42767 2.73149 0.924775
N 9.67863 6.54727 2.03104
N 10.8263 6.31796 2.67133
N 18.2463 6.18255 2.6752
N 22.7675 5.37068 1.44089
N 19.4151 1.87205 0.542332
N 24.7266 9.3136 1.04649
O 17.074 8.95146 1.15528
O 9.67835 3.39501 1.92342
O 14.5649 9.65565 1.39541
O 15.0742 6.29681 0.452893
O 13.1327 6.85662 1.358
O 28.6241 4.20687 3.1541
O 25.3623 6.76165 0.379387
O 26.0227 4.3211 3.25107
O 25.4946 1.79495 2.009
O 23.4215 2.00473 2.78885
O 7.14403 7.15625 1.40313
O 28.1875 2.43066 1.33579
O 32.5099 8.88935 0.310508
O 7.59421 2.33423 0.517989
O 6.16497 3.99708 0.875142
O 17.5098 3.42348 2.85738
O 18.7174 7.3761 2.51148
O 17.0945 5.91272 2.15495
O 23.7391 4.52308 1.57291
O 22.9443 6.60002 1.83322
68
 Atoms. Timestep: 100348
C 11.8825 2.81424 1.21701
C 13.5789 4.54319 1.01028
C 12.2481 4.14483 1.0649
C 12.8887 1.84016 1.17371
C 14.5745 3.56709 1.07222
C 14.2408 2.21426 1.13663
C 27.4037 6.22586 2.89319
C 28.7172 8.21389 2.42135
C 27.4891 7.61357 2.71025
C 28.5821 5.46833 2.81903
C 29.8296 7.40737 2.22633
C 29.7852 6.05378 2.49603
C 7.59238 9.44891 1.1362
C 9.91705 10.1504 1.20432
C 4.07012 2.10316 1.07803
C 8.00862 8.13236 1.377
C 10.2887 8.84706 1.5266
C 9.33163 7.85053 1.64627
C 19.1029 5.15578 3.18238
C 21.4776 4.95895 0.913138
C 20.5635 5.91486 0.491872
C 18.7204 3.80597 3.21944
C 21.1054 3.61549 0.881503
C 19.823 3.23865 0.474801
H 11.4745 4.8577 0.941837
H 15.6028 3.86274 1.07375
H 26.609 8.22704 2.7976
H 30.7198 7.81919 1.81537
H 3.76505 3.1053 0.836979
H 11.3283 8.60949 1.67537
H 20.8564 6.94887 0.508592
H 21.7775 2.8671 1.23725
N 10.5006 2.49504 1.46919
N 13.9153 5.93248 0.905061
N 19.7284 9.5793 1.20296
N 21.0282 9.84384 1.02916
N 26.1445 5.61914 3.21346
N 28.8403 9.63234 2.33618
N 30.9495 5.26519 2.48102
N 5.171 5.82598 2.57977
N 33.1981 9.7389 0.884013
N 6.45285 2.74906 0.918854
N 9.68742 6.546 2.03244
N 10.8366 6.3202 2.67636
N 18.2384 6.18417 2.68059
N 22.7443 5.37542 1.43787
N 19.4759 1.89214 0.533898
N 24.6816 9.298 1.04147
O 17.0496 8.93664 1.15075
O 9.69791 3.41111 1.9241
O 14.545 9.63722 1.39241
O 15.0627 6.29697 0.443324
O 13.1276 6.85486 1.35492
O 28.6005 4.21887 3.16267
O 25.3207 6.75854 0.370062
O 26.0054 4.33189 3.26
O 25.4831 1.82007 2.00936
O 23.417 2.02902 2.79489
O 7.15236 7.15098 1.40018
O 28.161 2.45091 1.3328
O 32.442 8.87465 0.300127
O 7.616 2.35349 0.509025
O 6.18558 4.00997 0.868663
O 17.5151 3.43958 2.86356
O 18.7043 7.37481 2.51535
O 17.0875 5.91575 2.15659
O 23.7178 4.53233 1.57101
O 22.9188 6.60105 1.83347
68
 Atoms. Timestep: 110377
C 11.8616 2.82842 1.25328
C 13.5629 4.54042 1.00467
C 12.2321 4.15338 1.08347
C 12.9386 1.84663 1.18523
C 14.5545 3.56018 1.0539
C 14.2128 2.21046 1.12544
C 27.3526 6.24547 2.89681
C 28.66 8.22781 2.409
C 27.4346 7.62973 2.7066
C 28.5324 5.49014 2.83005
C 29.7761 7.42412 2.21548
C 29.7336 6.07304 2.49653
C 7.61495 9.45371 1.11896
C 5.51196 1.84692 1.18989
C 4.15216 2.16186 1.05607
C 8.0283 8.14029 1.37105
C 10.3061 8.8535 1.5244
C 9.34784 7.86017 1.65203
C 19.0618 5.12144 3.16558
C 21.4312 4.97481 0.899644
C 20.5 5.90643 0.464485
C 18.7095 3.76571 3.21988
C 21.0872 3.62519 0.889469
C 19.8157 3.21824 0.488787
H 11.4622 4.87101 0.967206
H 15.5844 3.84643 1.0383
H 26.555 8.24333 2.79726
H 30.6671 7.83399 1.80242
H 3.84777 3.16051 0.80362
H 11.3444 8.6161 1.67549
H 20.7707 6.94509 0.465603
H 21.7731 2.89699 1.25795
N 10.4839 2.52242 1.54677
N 13.9032 5.92702 0.891052
N 19.6326 9.51163 1.1773
N 20.9359 9.76931 0.994855
N 26.0929 5.63807 3.21447
N 28.7777 9.64527 2.31796
N 30.8971 5.28292 2.48463
N 5.20712 5.84543 2.58964
N 33.136 9.74359 0.863354
N 6.53398 2.80004 0.895858
N 9.69962 6.55831 2.05239
N 10.8454 6.33924 2.69802
N 18.174 6.12164 2.65325
N 22.6856 5.42087 1.42
N 23.847 10.1714 0.583485
N 24.6497 9.25068 1.12657
O 16.9505 8.88861 1.1504
O 9.69072 3.45656 1.98578
O 14.4709 9.60334 1.54948
O 15.045 6.28693 0.40618
O 13.1255 6.85257 1.3545
O 28.5542 4.24466 3.1899
O 25.2403 6.76893 0.304707
O 25.9614 4.34913 3.28861
O 25.4738 1.88828 1.9585
O 23.4282 2.09664 2.80886
O 7.17052 7.15891 1.39068
O 28.1445 2.48051 1.36464
O 32.2092 8.49273 3.42016
O 7.68875 2.39943 0.461822
O 6.27683 4.0657 0.875391
O 17.5173 3.36718 2.85772
O 18.6004 7.3319 2.50666
O 17.0498 5.81381 2.09855
O 23.6688 4.59274 1.5811
O 22.836 6.65713 1.79461
68
 Atoms. Timestep: 120454
C 11.84 2.8526 1.27085
C 13.5498 4.5655 0.981933
C 12.2167 4.17796 1.08291
C 17.0408 10.0527 1.18503
C 14.5396 3.57774 1.02472
C 14.1923 2.22599 1.10736
C 27.2446 6.27126 2.92514
C 28.5477 8.25921 2.4104
C 27.3263 7.65842 2.73192
C 28.4258 5.51848 2.845
C 29.6627 7.45101 2.19631
C 29.6233 6.09809 2.48703
C 7.59493 9.41915 1.0895
C 5.61784 1.94948 1.16384
C 4.25465 2.25359 1.02084
C 8.01356 8.10702 1.35308
C 10.2867 8.84191 1.51393
C 9.33314 7.84038 1.64799
C 19.0015 5.1105 3.16304
C 21.3578 5.01252 0.887601
C 20.4056 5.91606 0.433347
C 18.6833 3.74128 3.23385
C 21.0461 3.65011 0.899417
C 19.787 3.19933 0.501508
H 11.4471 4.90348 0.971678
H 15.5712 3.86442 0.991183
H 26.447 8.27852 2.84562
H 30.5471 7.86472 1.76815
H 3.94588 3.25212 0.752218
H 11.3307 8.61504 1.66743
H 20.6538 6.96529 0.420838
H 21.7496 2.94542 1.2875
N 10.467 2.56345 1.60324
N 13.8869 5.95716 0.86577
N 19.4875 9.41308 1.15406
N 20.7898 9.66298 0.963027
N 25.9863 5.66631 3.25488
N 28.6576 9.68006 2.32755
N 30.7866 5.30724 2.46165
N 5.22804 5.86745 2.58081
N 32.9825 9.70491 0.829199
N 6.63833 2.90215 0.854157
N 9.69613 6.54986 2.07061
N 10.8443 6.35446 2.72167
N 18.088 6.07556 2.63515
N 22.5983 5.49707 1.41285
N 23.7242 10.0302 0.638044
N 24.5411 9.15544 1.2336
O 16.7851 8.7939 1.13842
O 9.68965 3.51199 2.03725
O 14.3246 9.53485 1.66128
O 15.0136 6.32252 0.355945
O 13.1161 6.88094 1.34497
O 28.4551 4.2815 3.21656
O 24.9383 6.39809 3.43442
O 25.8615 4.38518 3.38588
O 25.4662 2.04398 1.94373
O 23.4521 2.24291 2.85366
O 7.16625 7.11964 1.35727
O 28.1016 2.52221 1.38026
O 32.0937 8.48512 3.39299
O 7.77959 2.497 0.393776
O 6.39018 4.16829 0.844761
O 17.5083 3.30066 2.8606
O 18.4609 7.2996 2.50168
O 16.9981 5.72319 2.04574
O 23.5886 4.6882 1.61035
O 22.7215 6.73861 1.77751
68
 Atoms. Timestep: 130495
C 11.785 2.85996 1.30183
C 13.5258 4.51784 0.946554
C 12.1887 4.16962 1.09169
C 16.9973 9.9898 1.18854
C 14.4894 3.50232 0.946393
C 14.1105 2.16268 1.06624
C 27.2028 6.46447 2.98479
C 28.5619 8.41566 2.5034
C 27.3386 7.85234 2.87231
C 28.3381 5.66044 2.77999
C 29.623 7.57394 2.17239
C 29.5434 6.21087 2.39668
C 7.61992 9.39045 0.994768
C 5.67281 2.00112 1.09738
C 4.30768 2.27866 0.924336
C 8.05565 8.09098 1.28403
C 10.3145 8.86958 1.48428
C 9.37387 7.85746 1.62103
C 18.9367 5.00113 3.17109
C 21.3065 5.03954 0.914716
C 20.3043 5.85923 0.414252
C 18.702 3.62346 3.3011
C 21.0743 3.66571 0.997501
C 19.8415 3.12818 0.620403
H 11.4349 4.90849 0.999375
H 15.5247 3.7451 0.842805
H 26.51 8.4964 3.11448
H 30.5019 7.96741 1.71311
H 3.97987 3.25999 0.625943
H 11.3588 8.65841 1.65591
H 20.492 6.91311 0.337298
H 21.8159 3.0233 1.42559
N 10.4158 2.6072 1.68329
N 13.8932 5.90095 0.830173
N 19.329 9.27409 1.11145
N 20.6445 9.49588 0.981472
N 25.9317 5.89757 3.33749
N 28.7341 9.83338 2.48653
N 30.6725 5.37614 2.26625
N 5.13149 5.88101 2.35305
N 33.0178 9.64897 0.71956
N 6.68011 2.95867 0.770754
N 9.74747 6.58101 2.07334
N 10.8958 6.4136 2.73375
N 17.9579 5.8824 2.61053
N 22.5132 5.62096 1.41938
N 23.7895 9.91741 0.851256
N 24.6365 9.1327 1.524
O 16.6202 8.73754 1.16006
O 9.6652 3.59081 2.09444
O 14.2155 9.54242 1.81672
O 15.0219 6.24523 0.309372
O 13.1484 6.83928 1.32622
O 28.3137 4.38936 3.03389
O 24.8627 6.62687 3.30442
O 25.9631 4.97247 0.433387
O 25.6129 2.20887 2.12178
O 23.5917 2.45649 3.02094
O 7.22766 7.08073 1.26447
O 28.1847 2.54331 1.20623
O 32.1376 8.43511 3.3279
O 7.83528 2.55009 0.34897
O 6.39361 4.21374 0.657131
O 17.567 3.09276 2.91752
O 18.2097 7.14517 2.52068
O 16.9291 5.4241 1.97632
O 23.5237 4.86817 1.71935
O 22.5743 6.89472 1.68296
68
 Atoms. Timestep: 140520
C 11.7632 2.98786 1.35559
C 13.5466 4.57838 0.955309
C 12.2037 4.27424 1.11778
C 16.878 9.98344 1.26969
C 14.4814 3.54192 0.950792
C 14.071 2.22048 1.11943
C 27.1168 6.53245 2.9992
C 28.4955 8.47255 2.59583
C 27.2835 7.91169 2.98575
C 28.2068 5.71018 2.64706
C 29.5299 7.6427 2.17638
C 29.4149 6.26673 2.26335
C 7.55388 9.23944 0.937629
C 5.62811 2.10543 0.957407
C 4.24378 2.28124 0.786627
C 8.08457 7.9931 1.30271
C 10.2867 8.93475 1.4247
C 9.42097 7.87217 1.62548
C 18.9003 5.00646 3.23611
C 21.2777 5.07321 0.974755
C 20.2599 5.85496 0.443917
C 18.7067 3.63222 3.389
C 21.0826 3.70088 1.08626
C 19.8711 3.12475 0.705314
H 11.4693 5.02983 1.02555
H 15.5202 3.7437 0.803977
H 26.485 8.5486 3.32299
H 30.4144 8.06003 1.74982
H 3.84172 3.21466 0.434339
H 11.3439 8.80179 1.60071
H 20.4167 6.90825 0.341365
H 21.8365 3.09316 1.54498
N 10.3834 2.77257 1.73636
N 13.9586 5.93893 0.818402
N 19.1941 9.20647 1.18841
N 20.5145 9.40842 1.07467
N 25.8532 5.97085 3.3941
N 29.0823 9.87873 2.63341
N 30.4975 5.42123 1.94379
N 4.91338 5.92567 1.71933
N 32.9601 9.37763 0.646028
N 6.56179 3.11468 0.560349
N 9.88586 6.6494 2.13807
N 11.0538 6.60341 2.78168
N 17.8953 5.84369 2.65954
N 22.4621 5.69115 1.48237
N 23.7784 9.81189 0.973993
N 24.6412 9.07933 1.68739