units           real
atom_style      full
boundary        p p p

pair_style      lj/cut 12.500
bond_style      harmonic
angle_style     cosine/periodic
dihedral_style  harmonic
improper_style  fourier

pair_modify     tail yes mix arithmetic
dielectric      1.0
special_bonds   lj/coul 0.0 0.0 1.0
box tilt        large
read_data   all_input_data
Reading data file ...
  triclinic box = (0 0 0) to (6.657948 6.841317 32.152088) with tilt (-1.757845 -6.895633 -11.93318)
WARNING: Triclinic box skew is large (src/domain.cpp:224)
  1 by 2 by 10 MPI processor grid
  reading atoms ...
  68 atoms
  scanning bonds ...
  3 = max bonds/atom
  scanning angles ...
  3 = max angles/atom
  scanning dihedrals ...
  12 = max dihedrals/atom
  scanning impropers ...
  3 = max impropers/atom
  reading bonds ...
  68 bonds
  reading angles ...
  100 angles
  reading dihedrals ...
  136 dihedrals
  reading impropers ...
  96 impropers
Finding 1-2 1-3 1-4 neighbors ...
  special bond factors lj:    0        0        1       
  special bond factors coul:  0        0        1       
     3 = max # of 1-2 neighbors
     6 = max # of 1-3 neighbors
     9 = max # of special neighbors
  special bonds CPU = 0.001 seconds
  read_data CPU = 0.010 seconds

#### Atom Groupings ####
group           1        id   1:68
68 atoms in group 1
group           1-1      id   1:6 25:26 33:36 49:53
17 atoms in group 1-1
group           1-2      id   7:12 27:28 37:40 54:58
17 atoms in group 1-2
group           1-3      id   13:18 29:30 41:44 59:63
17 atoms in group 1-3
group           1-4      id   19:24 31:32 45:48 64:68
17 atoms in group 1-4
#### END Atom Groupings ####

dump           structure_xyzmov 1 xyz 100000 structure_mov.xyz
dump_modify    structure_xyzmov element C H N O
min_style       cg
print           "MinStep,CellMinStep,AtomMinStep,FinalStep,Energy,EDiff" file p1_structure.min.csv screen no
variable        min_eval   equal 1.00e-06
variable        prev_E     equal 50000.00
variable        iter       loop 100000
label           loop_min
min_style       cg
fix             1 all box/relax tri 100000 vmax 0.05
minimize        1.0e-15 1.0e-15 10000 100000
WARNING: Using 'neigh_modify every 1 delay 0 check yes' setting during minimization (src/min.cpp:187)
----------------------------------------------------------
Using INTEL Package without Coprocessor.
Compiler: Intel LLVM C++ 202202.0 / Intel(R) oneAPI DPC++/C++ Compiler 2022.2.1 (2022.2.1.20221020)
SIMD compiler directives: Enabled
Precision: mixed
----------------------------------------------------------
Generated 6 of 6 mixed pair_coeff terms from arithmetic mixing rule
Neighbor list info ...
  update every 1 steps, delay 0 steps, check yes
  max neighbors/atom: 2000, page size: 100000
  master list distance cutoff = 14.5
  ghost atom cutoff = 14.5
  binsize = 7.25, bins = 3 3 5
  1 neighbor lists, perpetual/occasional/extra = 1 0 0
  (1) pair lj/cut/intel, perpetual
      attributes: half, newton on, intel
      pair build: half/bin/newton/tri/intel
      stencil: half/bin/3d/tri
      bin: intel
WARNING: Bond/angle/dihedral extent > half of periodic box length (src/domain.cpp:940)
Per MPI rank memory allocation (min/avg/max) = 15.53 | 15.87 | 16.4 Mbytes
   Step          Temp          E_pair         E_mol          TotEng         Press          Volume    
         0   0              13590273       630.89905      13590903       2.5455536e+09  1464.4997    
       353   0              141.75769      104.59528      246.35297      107980.35      777.3606     
WARNING: Bond/angle/dihedral extent > half of periodic box length (src/domain.cpp:940)
Loop time of 0.926617 on 40 procs for 353 steps with 68 atoms

102.4% CPU use with 20 MPI tasks x 2 OpenMP threads

Minimization stats:
  Stopping criterion = linesearch alpha is zero
  Energy initial, next-to-last, final = 
      13590903.4638491  -830.976478329291  -755.768962538424
  Force two-norm initial, final = 3.12419e+08 687.86645
  Force max component initial, final = 1.4245469e+08 445.66839
  Final line search alpha, max atom move = 1.4179206e-13 6.3192238e-11
  Iterations, force evaluations = 353 843

MPI task timing breakdown:
Section |  min time  |  avg time  |  max time  |%varavg| %total
---------------------------------------------------------------
Pair    | 0.011272   | 0.10758    | 0.19546    |  19.0 | 11.61
Bond    | 0.00051899 | 0.032065   | 0.071933   |  15.2 |  3.46
Neigh   | 0.13352    | 0.13895    | 0.14949    |   1.2 | 15.00
Comm    | 0.3112     | 0.45933    | 0.6276     |  15.4 | 49.57
Output  | 0          | 0          | 0          |   0.0 |  0.00
Modify  | 0.00020599 | 0.030678   | 0.062154   |  12.2 |  3.31
Other   |            | 0.158      |            |       | 17.05

Nlocal:            3.4 ave           8 max           0 min
Histogram: 6 1 2 1 0 1 4 1 2 2
Nghost:        9297.45 ave        9620 max        8952 min
Histogram: 2 1 1 2 2 5 3 2 0 2
Neighs:           1878 ave        5281 max           0 min
Histogram: 6 2 2 0 3 1 4 0 1 1

Total # of neighbors = 37560
Ave neighs/atom = 552.35294
Ave special neighs/atom = 4.9411765
Neighbor list builds = 205
Dangerous builds = 86
unfix           1
min_style       fire
variable        tempstp    equal $(step)
variable        tempstp    equal 353
variable        CellMinStep equal ${tempstp}
variable        CellMinStep equal 353
minimize        1.0e-15 1.0e-15 10000 100000
WARNING: Using 'neigh_modify every 1 delay 0 check yes' setting during minimization (src/min.cpp:187)
----------------------------------------------------------
Using INTEL Package without Coprocessor.
Compiler: Intel LLVM C++ 202202.0 / Intel(R) oneAPI DPC++/C++ Compiler 2022.2.1 (2022.2.1.20221020)
SIMD compiler directives: Enabled
Precision: mixed
----------------------------------------------------------
Generated 6 of 6 mixed pair_coeff terms from arithmetic mixing rule
WARNING: Proc sub-domain size < neighbor skin, could lead to lost atoms (src/domain.cpp:970)
  Parameters for fire: 
    dmax delaystep dtgrow dtshrink alpha0 alphashrink tmax tmin    integrator halfstepback 
     0.1        20    1.1      0.5   0.25        0.99   10 0.02 eulerimplicit          yes 
WARNING: Bond/angle/dihedral extent > half of periodic box length (src/domain.cpp:940)
Per MPI rank memory allocation (min/avg/max) = 15.74 | 16.24 | 16.75 Mbytes
   Step          Temp          E_pair         E_mol          TotEng         Press     
       353   0              141.75769      104.59528      246.35297      107980.35    
     10353   0.0047989545   48.228309      18.421826      66.651094      37262.532    
WARNING: Bond/angle/dihedral extent > half of periodic box length (src/domain.cpp:940)
Loop time of 6.10554 on 40 procs for 10000 steps with 68 atoms

101.1% CPU use with 20 MPI tasks x 2 OpenMP threads

Minimization stats:
  Stopping criterion = max iterations
  Energy initial, next-to-last, final = 
      246.352966667726   66.6504041550412   66.6501355962222
  Force two-norm initial, final = 643.71642 0.2448182
  Force max component initial, final = 445.66839 0.050611176
  Final line search alpha, max atom move = 0 0
  Iterations, force evaluations = 10000 10530

MPI task timing breakdown:
Section |  min time  |  avg time  |  max time  |%varavg| %total
---------------------------------------------------------------
Pair    | 0.30476    | 0.91139    | 1.4215     |  40.6 | 14.93
Bond    | 0.0078556  | 0.26297    | 0.57693    |  44.3 |  4.31
Neigh   | 0.0020177  | 0.0021664  | 0.0023646  |   0.3 |  0.04
Comm    | 2.9057     | 3.9391     | 5.2631     |  42.9 | 64.52
Output  | 7.6434e-05 | 7.788e-05  | 9.3622e-05 |   0.0 |  0.00
Modify  | 0.080554   | 0.54898    | 0.96983    |  37.2 |  8.99
Other   |            | 0.4409     |            |       |  7.22

Nlocal:            3.4 ave           9 max           0 min
Histogram: 5 4 0 1 3 3 0 0 2 2
Nghost:        10143.1 ave       10807 max        9619 min
Histogram: 2 4 2 0 3 1 4 2 0 2
Neighs:        1889.85 ave        5064 max           0 min
Histogram: 5 4 0 1 3 3 0 0 2 2

Total # of neighbors = 37797
Ave neighs/atom = 555.83824
Ave special neighs/atom = 4.9411765
Neighbor list builds = 3
Dangerous builds = 0
variable        AtomMinStep equal $(step)
variable        AtomMinStep equal 10353
variable        temppe     equal $(pe)
variable        temppe     equal 66.650135596222199297
variable        min_E      equal abs(${prev_E}-${temppe})
variable        min_E      equal abs(50000-${temppe})
variable        min_E      equal abs(50000-66.6501355962222)
print           "${iter},${CellMinStep},${AtomMinStep},${AtomMinStep},$(pe),${min_E}" append p1_structure.min.csv screen no
if              "${min_E} < ${min_eval}" then "jump SELF break_min"
variable        prev_E     equal ${temppe}
variable        prev_E     equal 66.6501355962222
next            iter
jump            SELF loop_min
min_style       cg
fix             1 all box/relax tri 100000 vmax 0.05
minimize        1.0e-15 1.0e-15 10000 100000
WARNING: Using 'neigh_modify every 1 delay 0 check yes' setting during minimization (src/min.cpp:187)
----------------------------------------------------------
Using INTEL Package without Coprocessor.
Compiler: Intel LLVM C++ 202202.0 / Intel(R) oneAPI DPC++/C++ Compiler 2022.2.1 (2022.2.1.20221020)
SIMD compiler directives: Enabled
Precision: mixed
----------------------------------------------------------
Generated 6 of 6 mixed pair_coeff terms from arithmetic mixing rule
WARNING: Proc sub-domain size < neighbor skin, could lead to lost atoms (src/domain.cpp:970)
WARNING: Bond/angle/dihedral extent > half of periodic box length (src/domain.cpp:940)
Per MPI rank memory allocation (min/avg/max) = 17.02 | 17.49 | 17.87 Mbytes
   Step          Temp          E_pair         E_mol          TotEng         Press          Volume    
     10353   0.0047989545   48.228345      18.256428      66.485732      37262.626      777.3606     
     10412   0.0047989545   115.55273      14.583451      130.13714      101407.87      694.28378    
WARNING: Bond/angle/dihedral extent > half of periodic box length (src/domain.cpp:940)
Loop time of 0.599757 on 40 procs for 59 steps with 68 atoms

103.4% CPU use with 20 MPI tasks x 2 OpenMP threads

Minimization stats:
  Stopping criterion = linesearch alpha is zero
  Energy initial, next-to-last, final = 
      66.4847731647066   8.97715907429826   8.97715907429826
  Force two-norm initial, final = 1308.2156 34.158217
  Force max component initial, final = 994.47122 18.039821
  Final line search alpha, max atom move = 1.0325186e-11 1.8626451e-10
  Iterations, force evaluations = 59 533

MPI task timing breakdown:
Section |  min time  |  avg time  |  max time  |%varavg| %total
---------------------------------------------------------------
Pair    | 0.012955   | 0.091078   | 0.14111    |  15.3 | 15.19
Bond    | 0.00032999 | 0.025168   | 0.050279   |  14.0 |  4.20
Neigh   | 0.040725   | 0.044501   | 0.047557   |   1.2 |  7.42
Comm    | 0.20393    | 0.29802    | 0.43744    |  15.5 | 49.69
Output  | 0          | 0          | 0          |   0.0 |  0.00
Modify  | 0.00012125 | 0.027665   | 0.056942   |  11.4 |  4.61
Other   |            | 0.1133     |            |       | 18.90

Nlocal:            3.4 ave           9 max           0 min
Histogram: 5 2 1 2 3 3 1 1 0 2
Nghost:        11893.9 ave       12288 max       11423 min
Histogram: 4 1 3 0 0 4 0 0 0 8
Neighs:         2088.4 ave        5583 max           0 min
Histogram: 5 2 1 2 3 3 1 1 0 2

Total # of neighbors = 41768
Ave neighs/atom = 614.23529
Ave special neighs/atom = 4.9411765
Neighbor list builds = 60
Dangerous builds = 9
unfix           1
min_style       fire
variable        tempstp    equal $(step)
variable        tempstp    equal 10412
variable        CellMinStep equal ${tempstp}
variable        CellMinStep equal 10412
minimize        1.0e-15 1.0e-15 10000 100000
WARNING: Using 'neigh_modify every 1 delay 0 check yes' setting during minimization (src/min.cpp:187)
----------------------------------------------------------
Using INTEL Package without Coprocessor.
Compiler: Intel LLVM C++ 202202.0 / Intel(R) oneAPI DPC++/C++ Compiler 2022.2.1 (2022.2.1.20221020)
SIMD compiler directives: Enabled
Precision: mixed
----------------------------------------------------------
Generated 6 of 6 mixed pair_coeff terms from arithmetic mixing rule
WARNING: Proc sub-domain size < neighbor skin, could lead to lost atoms (src/domain.cpp:970)
  Parameters for fire: 
    dmax delaystep dtgrow dtshrink alpha0 alphashrink tmax tmin    integrator halfstepback 
     0.1        20    1.1      0.5   0.25        0.99   10 0.02 eulerimplicit          yes 
WARNING: Bond/angle/dihedral extent > half of periodic box length (src/domain.cpp:940)
Per MPI rank memory allocation (min/avg/max) = 16.05 | 16.52 | 16.88 Mbytes
   Step          Temp          E_pair         E_mol          TotEng         Press     
     10412   0              115.55273      14.583451      130.13618      101407.8     
     20412   0.00065535121  118.32623      22.634949      140.96131      87904.131    
WARNING: Bond/angle/dihedral extent > half of periodic box length (src/domain.cpp:940)
Loop time of 7.07596 on 40 procs for 10000 steps with 68 atoms

101.7% CPU use with 20 MPI tasks x 2 OpenMP threads

Minimization stats:
  Stopping criterion = max iterations
  Energy initial, next-to-last, final = 
      130.136184560765   140.961182729868   140.961177240254
  Force two-norm initial, final = 20.318036 0.11694651
  Force max component initial, final = 4.6314629 0.030445383
  Final line search alpha, max atom move = 0 0
  Iterations, force evaluations = 10000 10528

MPI task timing breakdown:
Section |  min time  |  avg time  |  max time  |%varavg| %total
---------------------------------------------------------------
Pair    | 0.2779     | 1.1157     | 1.6369     |  40.1 | 15.77
Bond    | 0.0050777  | 0.30108    | 0.59832    |  42.6 |  4.25
Neigh   | 0.00067096 | 0.00075661 | 0.00081368 |   0.0 |  0.01
Comm    | 3.3871     | 4.4364     | 6.2227     |  44.2 | 62.70
Output  | 6.6395e-05 | 6.8382e-05 | 8.0858e-05 |   0.0 |  0.00
Modify  | 0.0021688  | 0.72574    | 1.0573     |  41.7 | 10.26
Other   |            | 0.4962     |            |       |  7.01

Nlocal:            3.4 ave           8 max           0 min
Histogram: 3 4 3 1 0 1 3 0 4 1
Nghost:        12104.8 ave       12515 max       11625 min
Histogram: 4 2 2 0 0 3 1 0 2 6
Neighs:         2118.9 ave        5016 max           0 min
Histogram: 3 4 3 1 0 1 3 0 4 1

Total # of neighbors = 42378
Ave neighs/atom = 623.20588
Ave special neighs/atom = 4.9411765
Neighbor list builds = 1
Dangerous builds = 0
variable        AtomMinStep equal $(step)
variable        AtomMinStep equal 20412
variable        temppe     equal $(pe)
variable        temppe     equal 140.96117724025404527
variable        min_E      equal abs(${prev_E}-${temppe})
variable        min_E      equal abs(66.6501355962222-${temppe})
variable        min_E      equal abs(66.6501355962222-140.961177240254)
print           "${iter},${CellMinStep},${AtomMinStep},${AtomMinStep},$(pe),${min_E}" append p1_structure.min.csv screen no
if              "${min_E} < ${min_eval}" then "jump SELF break_min"
variable        prev_E     equal ${temppe}
variable        prev_E     equal 140.961177240254
next            iter
jump            SELF loop_min
min_style       cg
fix             1 all box/relax tri 100000 vmax 0.05
minimize        1.0e-15 1.0e-15 10000 100000
WARNING: Using 'neigh_modify every 1 delay 0 check yes' setting during minimization (src/min.cpp:187)
----------------------------------------------------------
Using INTEL Package without Coprocessor.
Compiler: Intel LLVM C++ 202202.0 / Intel(R) oneAPI DPC++/C++ Compiler 2022.2.1 (2022.2.1.20221020)
SIMD compiler directives: Enabled
Precision: mixed
----------------------------------------------------------
Generated 6 of 6 mixed pair_coeff terms from arithmetic mixing rule
WARNING: Proc sub-domain size < neighbor skin, could lead to lost atoms (src/domain.cpp:970)
WARNING: Bond/angle/dihedral extent > half of periodic box length (src/domain.cpp:940)
Per MPI rank memory allocation (min/avg/max) = 17.18 | 17.65 | 18.03 Mbytes
   Step          Temp          E_pair         E_mol          TotEng         Press          Volume    
     20412   0.00065535121  118.32624      22.634948      140.96131      87904.124      694.28378    
     20415   0.00065535121  123.6249       21.191679      144.81671      102466.36      690.99061    
WARNING: Bond/angle/dihedral extent > half of periodic box length (src/domain.cpp:940)
Loop time of 0.102462 on 40 procs for 3 steps with 68 atoms

105.5% CPU use with 20 MPI tasks x 2 OpenMP threads

Minimization stats:
  Stopping criterion = linesearch alpha is zero
  Energy initial, next-to-last, final = 
      140.961183778415   140.013824022503   140.013824022503
  Force two-norm initial, final = 374.98824 84.787664
  Force max component initial, final = 373.69071 70.291666
  Final line search alpha, max atom move = 1.3249402e-12 9.3132257e-11
  Iterations, force evaluations = 3 97

MPI task timing breakdown:
Section |  min time  |  avg time  |  max time  |%varavg| %total
---------------------------------------------------------------
Pair    | 0.0026634  | 0.019988   | 0.027912   |   5.6 | 19.51
Bond    | 6.6477e-05 | 0.0053869  | 0.00927    |   5.3 |  5.26
Neigh   | 0.0013474  | 0.0013986  | 0.0014355  |   0.1 |  1.36
Comm    | 0.03226    | 0.048156   | 0.077461   |   6.4 | 47.00
Output  | 0          | 0          | 0          |   0.0 |  0.00
Modify  | 2.2162e-05 | 0.0064419  | 0.011759   |   4.3 |  6.29
Other   |            | 0.02109    |            |       | 20.58

Nlocal:            3.4 ave           8 max           0 min
Histogram: 3 4 3 1 0 1 3 1 2 2
Nghost:        12220.8 ave       12596 max       11749 min
Histogram: 2 0 2 3 1 3 1 4 0 4
Neighs:        2130.25 ave        5053 max           0 min
Histogram: 3 4 3 1 0 1 3 1 2 2

Total # of neighbors = 42605
Ave neighs/atom = 626.54412
Ave special neighs/atom = 4.9411765
Neighbor list builds = 2
Dangerous builds = 2
unfix           1
min_style       fire
variable        tempstp    equal $(step)
variable        tempstp    equal 20415
variable        CellMinStep equal ${tempstp}
variable        CellMinStep equal 20415
minimize        1.0e-15 1.0e-15 10000 100000
WARNING: Using 'neigh_modify every 1 delay 0 check yes' setting during minimization (src/min.cpp:187)
----------------------------------------------------------
Using INTEL Package without Coprocessor.
Compiler: Intel LLVM C++ 202202.0 / Intel(R) oneAPI DPC++/C++ Compiler 2022.2.1 (2022.2.1.20221020)
SIMD compiler directives: Enabled
Precision: mixed
----------------------------------------------------------
Generated 6 of 6 mixed pair_coeff terms from arithmetic mixing rule
WARNING: Proc sub-domain size < neighbor skin, could lead to lost atoms (src/domain.cpp:970)
  Parameters for fire: 
    dmax delaystep dtgrow dtshrink alpha0 alphashrink tmax tmin    integrator halfstepback 
     0.1        20    1.1      0.5   0.25        0.99   10 0.02 eulerimplicit          yes 
WARNING: Bond/angle/dihedral extent > half of periodic box length (src/domain.cpp:940)
Per MPI rank memory allocation (min/avg/max) = 16.05 | 16.53 | 16.9 Mbytes
   Step          Temp          E_pair         E_mol          TotEng         Press     
     20415   0              123.6249       21.191679      144.81658      102466.35    
     30415   1.1848575e-05  121.21149      22.789658      144.00115      91283.161    
WARNING: Bond/angle/dihedral extent > half of periodic box length (src/domain.cpp:940)
Loop time of 7.4402 on 40 procs for 10000 steps with 68 atoms

101.5% CPU use with 20 MPI tasks x 2 OpenMP threads

Minimization stats:
  Stopping criterion = max iterations
  Energy initial, next-to-last, final = 
      144.816581870385   144.001125173553   144.001147242281
  Force two-norm initial, final = 36.396714 0.029724763
  Force max component initial, final = 8.2889768 0.010785442
  Final line search alpha, max atom move = 0 0
  Iterations, force evaluations = 10000 10540

MPI task timing breakdown:
Section |  min time  |  avg time  |  max time  |%varavg| %total
---------------------------------------------------------------
Pair    | 0.29195    | 1.2234     | 1.6766     |  38.5 | 16.44
Bond    | 0.0047139  | 0.3427     | 0.60139    |  43.4 |  4.61
Neigh   | 0          | 0          | 0          |   0.0 |  0.00
Comm    | 3.5808     | 4.5042     | 6.5605     |  44.6 | 60.54
Output  | 7.0241e-05 | 7.1436e-05 | 8.1115e-05 |   0.0 |  0.00
Modify  | 0.0024976  | 0.81106    | 1.1931     |  39.8 | 10.90
Other   |            | 0.5588     |            |       |  7.51

Nlocal:            3.4 ave           8 max           0 min
Histogram: 3 4 3 1 0 1 3 1 2 2
Nghost:        12220.8 ave       12596 max       11749 min
Histogram: 2 0 2 3 1 3 1 4 0 4
Neighs:        2130.25 ave        5053 max           0 min
Histogram: 3 4 3 1 0 1 3 1 2 2

Total # of neighbors = 42605
Ave neighs/atom = 626.54412
Ave special neighs/atom = 4.9411765
Neighbor list builds = 0
Dangerous builds = 0
variable        AtomMinStep equal $(step)
variable        AtomMinStep equal 30415
variable        temppe     equal $(pe)
variable        temppe     equal 144.00114724228120622
variable        min_E      equal abs(${prev_E}-${temppe})
variable        min_E      equal abs(140.961177240254-${temppe})
variable        min_E      equal abs(140.961177240254-144.001147242281)
print           "${iter},${CellMinStep},${AtomMinStep},${AtomMinStep},$(pe),${min_E}" append p1_structure.min.csv screen no
if              "${min_E} < ${min_eval}" then "jump SELF break_min"
variable        prev_E     equal ${temppe}
variable        prev_E     equal 144.001147242281
next            iter
jump            SELF loop_min
min_style       cg
fix             1 all box/relax tri 100000 vmax 0.05
minimize        1.0e-15 1.0e-15 10000 100000
WARNING: Using 'neigh_modify every 1 delay 0 check yes' setting during minimization (src/min.cpp:187)
----------------------------------------------------------
Using INTEL Package without Coprocessor.
Compiler: Intel LLVM C++ 202202.0 / Intel(R) oneAPI DPC++/C++ Compiler 2022.2.1 (2022.2.1.20221020)
SIMD compiler directives: Enabled
Precision: mixed
----------------------------------------------------------
Generated 6 of 6 mixed pair_coeff terms from arithmetic mixing rule
WARNING: Proc sub-domain size < neighbor skin, could lead to lost atoms (src/domain.cpp:970)
WARNING: Bond/angle/dihedral extent > half of periodic box length (src/domain.cpp:940)
Per MPI rank memory allocation (min/avg/max) = 17.18 | 17.65 | 18.03 Mbytes
   Step          Temp          E_pair         E_mol          TotEng         Press          Volume    
     30415   1.1848575e-05  121.21149      22.789659      144.00115      91283.148      690.99061    
     30423   1.1848575e-05  123.7828       21.445604      145.22841      101822.49      689.57303    
WARNING: Bond/angle/dihedral extent > half of periodic box length (src/domain.cpp:940)
Loop time of 0.25496 on 40 procs for 8 steps with 68 atoms

101.6% CPU use with 20 MPI tasks x 2 OpenMP threads

Minimization stats:
  Stopping criterion = linesearch alpha is zero
  Energy initial, next-to-last, final = 
       144.00114869055   143.161021796395   143.161021796395
  Force two-norm initial, final = 312.08942 48.849567
  Force max component initial, final = 309.15639 34.174552
  Final line search alpha, max atom move = 3.0862935e-12 1.054727e-10
  Iterations, force evaluations = 8 246

MPI task timing breakdown:
Section |  min time  |  avg time  |  max time  |%varavg| %total
---------------------------------------------------------------
Pair    | 0.0070156  | 0.049056   | 0.069234   |   8.6 | 19.24
Bond    | 0.00017471 | 0.014312   | 0.023621   |   8.3 |  5.61
Neigh   | 0.0040268  | 0.0044025  | 0.0048671  |   0.4 |  1.73
Comm    | 0.08235    | 0.11986    | 0.19119    |   9.9 | 47.01
Output  | 0          | 0          | 0          |   0.0 |  0.00
Modify  | 6.3609e-05 | 0.015864   | 0.0278     |   6.5 |  6.22
Other   |            | 0.05146    |            |       | 20.18

Nlocal:            3.4 ave           8 max           0 min
Histogram: 3 3 4 1 0 1 3 1 3 1
Nghost:        12110.9 ave       12457 max       11618 min
Histogram: 4 0 0 2 2 0 0 5 3 4
Neighs:         2101.1 ave        4838 max           0 min
Histogram: 3 3 4 1 0 1 3 1 2 2

Total # of neighbors = 42022
Ave neighs/atom = 617.97059
Ave special neighs/atom = 4.9411765
Neighbor list builds = 6
Dangerous builds = 3
unfix           1
min_style       fire
variable        tempstp    equal $(step)
variable        tempstp    equal 30423
variable        CellMinStep equal ${tempstp}
variable        CellMinStep equal 30423
minimize        1.0e-15 1.0e-15 10000 100000
WARNING: Using 'neigh_modify every 1 delay 0 check yes' setting during minimization (src/min.cpp:187)
----------------------------------------------------------
Using INTEL Package without Coprocessor.
Compiler: Intel LLVM C++ 202202.0 / Intel(R) oneAPI DPC++/C++ Compiler 2022.2.1 (2022.2.1.20221020)
SIMD compiler directives: Enabled
Precision: mixed
----------------------------------------------------------
Generated 6 of 6 mixed pair_coeff terms from arithmetic mixing rule
WARNING: Proc sub-domain size < neighbor skin, could lead to lost atoms (src/domain.cpp:970)
  Parameters for fire: 
    dmax delaystep dtgrow dtshrink alpha0 alphashrink tmax tmin    integrator halfstepback 
     0.1        20    1.1      0.5   0.25        0.99   10 0.02 eulerimplicit          yes 
WARNING: Bond/angle/dihedral extent > half of periodic box length (src/domain.cpp:940)
Per MPI rank memory allocation (min/avg/max) = 16.05 | 16.53 | 16.9 Mbytes
   Step          Temp          E_pair         E_mol          TotEng         Press     
     30423   0              123.7828       21.445604      145.22841      101822.49    
     40423   1.0674392e-06  121.61935      22.922149      144.5415       92647.093    
WARNING: Bond/angle/dihedral extent > half of periodic box length (src/domain.cpp:940)
Loop time of 7.35116 on 40 procs for 10000 steps with 68 atoms

101.2% CPU use with 20 MPI tasks x 2 OpenMP threads

Minimization stats:
  Stopping criterion = max iterations
  Energy initial, next-to-last, final = 
      145.228407960192   144.541682632562   144.541498638092
  Force two-norm initial, final = 28.808913 0.021747873
  Force max component initial, final = 7.5033453 0.0045175669
  Final line search alpha, max atom move = 0 0
  Iterations, force evaluations = 10000 10542

MPI task timing breakdown:
Section |  min time  |  avg time  |  max time  |%varavg| %total
---------------------------------------------------------------
Pair    | 0.29104    | 1.2177     | 1.6546     |  37.9 | 16.56
Bond    | 0.0048071  | 0.36299    | 0.6238     |  43.7 |  4.94
Neigh   | 0          | 0          | 0          |   0.0 |  0.00
Comm    | 3.5607     | 4.4161     | 6.5543     |  46.0 | 60.07
Output  | 5.9715e-05 | 6.1304e-05 | 7.4994e-05 |   0.0 |  0.00
Modify  | 0.0024269  | 0.83623    | 1.1691     |  39.9 | 11.38
Other   |            | 0.5181     |            |       |  7.05

Nlocal:            3.4 ave           8 max           0 min
Histogram: 3 3 4 1 0 1 3 1 3 1
Nghost:        12286.1 ave       12665 max       11738 min
Histogram: 2 1 1 2 1 1 4 1 4 3
Neighs:        2135.65 ave        4917 max           0 min
Histogram: 3 3 4 1 0 1 3 1 2 2

Total # of neighbors = 42713
Ave neighs/atom = 628.13235
Ave special neighs/atom = 4.9411765
Neighbor list builds = 0
Dangerous builds = 0
variable        AtomMinStep equal $(step)
variable        AtomMinStep equal 40423
variable        temppe     equal $(pe)
variable        temppe     equal 144.54149863809220733
variable        min_E      equal abs(${prev_E}-${temppe})
variable        min_E      equal abs(144.001147242281-${temppe})
variable        min_E      equal abs(144.001147242281-144.541498638092)
print           "${iter},${CellMinStep},${AtomMinStep},${AtomMinStep},$(pe),${min_E}" append p1_structure.min.csv screen no
if              "${min_E} < ${min_eval}" then "jump SELF break_min"
variable        prev_E     equal ${temppe}
variable        prev_E     equal 144.541498638092
next            iter
jump            SELF loop_min
min_style       cg
fix             1 all box/relax tri 100000 vmax 0.05
minimize        1.0e-15 1.0e-15 10000 100000
WARNING: Using 'neigh_modify every 1 delay 0 check yes' setting during minimization (src/min.cpp:187)
----------------------------------------------------------
Using INTEL Package without Coprocessor.
Compiler: Intel LLVM C++ 202202.0 / Intel(R) oneAPI DPC++/C++ Compiler 2022.2.1 (2022.2.1.20221020)
SIMD compiler directives: Enabled
Precision: mixed
----------------------------------------------------------
Generated 6 of 6 mixed pair_coeff terms from arithmetic mixing rule
WARNING: Proc sub-domain size < neighbor skin, could lead to lost atoms (src/domain.cpp:970)
WARNING: Bond/angle/dihedral extent > half of periodic box length (src/domain.cpp:940)
Per MPI rank memory allocation (min/avg/max) = 17.18 | 17.65 | 18.03 Mbytes
   Step          Temp          E_pair         E_mol          TotEng         Press          Volume    
     40423   1.0674392e-06  121.61936      22.974543      144.5939       92647.12       689.57303    
     40426   1.0674392e-06  125.00285      22.12842       147.13127      102365.95      687.5215     
WARNING: Bond/angle/dihedral extent > half of periodic box length (src/domain.cpp:940)
Loop time of 0.105481 on 40 procs for 3 steps with 68 atoms

105.5% CPU use with 20 MPI tasks x 2 OpenMP threads

Minimization stats:
  Stopping criterion = linesearch alpha is zero
  Energy initial, next-to-last, final = 
      144.593898488786   144.139318419462   144.139318419462
  Force two-norm initial, final = 258.66565 65.493292
  Force max component initial, final = 256.57789 45.391986
  Final line search alpha, max atom move = 2.0517335e-12 9.3132257e-11
  Iterations, force evaluations = 3 97

MPI task timing breakdown:
Section |  min time  |  avg time  |  max time  |%varavg| %total
---------------------------------------------------------------
Pair    | 0.0027621  | 0.021119   | 0.028512   |   5.6 | 20.02
Bond    | 6.4534e-05 | 0.005426   | 0.0094756  |   5.4 |  5.14
Neigh   | 0.0013747  | 0.0014729  | 0.0015701  |   0.1 |  1.40
Comm    | 0.034321   | 0.050095   | 0.080679   |   6.6 | 47.49
Output  | 0          | 0          | 0          |   0.0 |  0.00
Modify  | 2.6728e-05 | 0.0069196  | 0.011949   |   4.6 |  6.56
Other   |            | 0.02045    |            |       | 19.39

Nlocal:            3.4 ave           8 max           0 min
Histogram: 3 4 3 0 0 2 3 1 3 1
Nghost:        12295.5 ave       12702 max       11738 min
Histogram: 2 2 0 2 2 0 3 2 4 3
Neighs:        2142.15 ave        4932 max           0 min
Histogram: 3 4 3 0 0 2 3 1 2 2

Total # of neighbors = 42843
Ave neighs/atom = 630.04412
Ave special neighs/atom = 4.9411765
Neighbor list builds = 2
Dangerous builds = 2
unfix           1
min_style       fire
variable        tempstp    equal $(step)
variable        tempstp    equal 40426
variable        CellMinStep equal ${tempstp}
variable        CellMinStep equal 40426
minimize        1.0e-15 1.0e-15 10000 100000
WARNING: Using 'neigh_modify every 1 delay 0 check yes' setting during minimization (src/min.cpp:187)
----------------------------------------------------------
Using INTEL Package without Coprocessor.
Compiler: Intel LLVM C++ 202202.0 / Intel(R) oneAPI DPC++/C++ Compiler 2022.2.1 (2022.2.1.20221020)
SIMD compiler directives: Enabled
Precision: mixed
----------------------------------------------------------
Generated 6 of 6 mixed pair_coeff terms from arithmetic mixing rule
WARNING: Proc sub-domain size < neighbor skin, could lead to lost atoms (src/domain.cpp:970)
  Parameters for fire: 
    dmax delaystep dtgrow dtshrink alpha0 alphashrink tmax tmin    integrator halfstepback 
     0.1        20    1.1      0.5   0.25        0.99   10 0.02 eulerimplicit          yes 
WARNING: Bond/angle/dihedral extent > half of periodic box length (src/domain.cpp:940)
Per MPI rank memory allocation (min/avg/max) = 16.05 | 16.53 | 16.9 Mbytes
   Step          Temp          E_pair         E_mol          TotEng         Press     
     40426   0              125.00285      22.12842       147.13127      102365.95    
     50426   7.7780959e-06  123.67494      23.04032       146.71526      95047.791    
WARNING: Bond/angle/dihedral extent > half of periodic box length (src/domain.cpp:940)
Loop time of 7.45418 on 40 procs for 10000 steps with 68 atoms

101.4% CPU use with 20 MPI tasks x 2 OpenMP threads

Minimization stats:
  Stopping criterion = max iterations
  Energy initial, next-to-last, final = 
       147.13126918399   146.715238550208    146.71526200829
  Force two-norm initial, final = 25.519466 0.023361783
  Force max component initial, final = 5.6634547 0.0079120276
  Final line search alpha, max atom move = 0 0
  Iterations, force evaluations = 10000 10541

MPI task timing breakdown:
Section |  min time  |  avg time  |  max time  |%varavg| %total
---------------------------------------------------------------
Pair    | 0.28638    | 1.2119     | 1.6629     |  38.9 | 16.26
Bond    | 0.0048782  | 0.34173    | 0.63186    |  44.4 |  4.58
Neigh   | 0          | 0          | 0          |   0.0 |  0.00
Comm    | 3.4906     | 4.5576     | 6.6668     |  45.5 | 61.14
Output  | 6.2752e-05 | 6.4774e-05 | 7.7415e-05 |   0.0 |  0.00
Modify  | 0.0022584  | 0.83079    | 1.1883     |  41.3 | 11.15
Other   |            | 0.5121     |            |       |  6.87

Nlocal:            3.4 ave           8 max           0 min
Histogram: 3 4 3 0 0 2 3 1 3 1
Nghost:        12295.5 ave       12702 max       11738 min
Histogram: 2 2 0 2 2 0 3 2 4 3
Neighs:        2142.15 ave        4932 max           0 min
Histogram: 3 4 3 0 0 2 3 1 2 2

Total # of neighbors = 42843
Ave neighs/atom = 630.04412
Ave special neighs/atom = 4.9411765
Neighbor list builds = 0
Dangerous builds = 0
variable        AtomMinStep equal $(step)
variable        AtomMinStep equal 50426
variable        temppe     equal $(pe)
variable        temppe     equal 146.71526200828998299
variable        min_E      equal abs(${prev_E}-${temppe})
variable        min_E      equal abs(144.541498638092-${temppe})
variable        min_E      equal abs(144.541498638092-146.71526200829)
print           "${iter},${CellMinStep},${AtomMinStep},${AtomMinStep},$(pe),${min_E}" append p1_structure.min.csv screen no
if              "${min_E} < ${min_eval}" then "jump SELF break_min"
variable        prev_E     equal ${temppe}
variable        prev_E     equal 146.71526200829
next            iter
jump            SELF loop_min
min_style       cg
fix             1 all box/relax tri 100000 vmax 0.05
minimize        1.0e-15 1.0e-15 10000 100000
WARNING: Using 'neigh_modify every 1 delay 0 check yes' setting during minimization (src/min.cpp:187)
----------------------------------------------------------
Using INTEL Package without Coprocessor.
Compiler: Intel LLVM C++ 202202.0 / Intel(R) oneAPI DPC++/C++ Compiler 2022.2.1 (2022.2.1.20221020)
SIMD compiler directives: Enabled
Precision: mixed
----------------------------------------------------------
Generated 6 of 6 mixed pair_coeff terms from arithmetic mixing rule
WARNING: Proc sub-domain size < neighbor skin, could lead to lost atoms (src/domain.cpp:970)
WARNING: Bond/angle/dihedral extent > half of periodic box length (src/domain.cpp:940)
Per MPI rank memory allocation (min/avg/max) = 17.18 | 17.65 | 18.03 Mbytes
   Step          Temp          E_pair         E_mol          TotEng         Press          Volume    
     50426   7.7780959e-06  123.67494      23.04032       146.71526      95047.789      687.5215     
     50437   7.7780959e-06  135.43019      22.490681      157.92087      108381.46      687.9835     
WARNING: Bond/angle/dihedral extent > half of periodic box length (src/domain.cpp:940)
Loop time of 0.191289 on 40 procs for 11 steps with 68 atoms

105.9% CPU use with 20 MPI tasks x 2 OpenMP threads

Minimization stats:
  Stopping criterion = linesearch alpha is zero
  Energy initial, next-to-last, final = 
       146.71525873412   146.123778299155    158.59465154552
  Force two-norm initial, final = 215.51054 483.20019
  Force max component initial, final = 210.05999 341.64621
  Final line search alpha, max atom move = 2.2275744e-12 7.6104234e-10
  Iterations, force evaluations = 11 157

MPI task timing breakdown:
Section |  min time  |  avg time  |  max time  |%varavg| %total
---------------------------------------------------------------
Pair    | 0.0040693  | 0.033495   | 0.0467     |   7.1 | 17.51
Bond    | 0.00011316 | 0.0091183  | 0.015589   |   6.7 |  4.77
Neigh   | 0.013011   | 0.013909   | 0.014599   |   0.4 |  7.27
Comm    | 0.062153   | 0.088598   | 0.13878    |   7.8 | 46.32
Output  | 0          | 0          | 0          |   0.0 |  0.00
Modify  | 4.079e-05  | 0.011129   | 0.018739   |   5.5 |  5.82
Other   |            | 0.03504    |            |       | 18.32

Nlocal:            3.4 ave           8 max           0 min
Histogram: 3 4 1 2 0 2 3 3 1 1
Nghost:        12475.2 ave       12924 max       12018 min
Histogram: 2 1 1 4 0 5 3 2 0 2
Neighs:         2174.8 ave        4986 max           0 min
Histogram: 3 4 1 2 0 2 3 3 1 1

Total # of neighbors = 43496
Ave neighs/atom = 639.64706
Ave special neighs/atom = 4.9411765
Neighbor list builds = 18
Dangerous builds = 7
unfix           1
min_style       fire
variable        tempstp    equal $(step)
variable        tempstp    equal 50437
variable        CellMinStep equal ${tempstp}
variable        CellMinStep equal 50437
minimize        1.0e-15 1.0e-15 10000 100000
WARNING: Using 'neigh_modify every 1 delay 0 check yes' setting during minimization (src/min.cpp:187)
----------------------------------------------------------
Using INTEL Package without Coprocessor.
Compiler: Intel LLVM C++ 202202.0 / Intel(R) oneAPI DPC++/C++ Compiler 2022.2.1 (2022.2.1.20221020)
SIMD compiler directives: Enabled
Precision: mixed
----------------------------------------------------------
Generated 6 of 6 mixed pair_coeff terms from arithmetic mixing rule
WARNING: Proc sub-domain size < neighbor skin, could lead to lost atoms (src/domain.cpp:970)
  Parameters for fire: 
    dmax delaystep dtgrow dtshrink alpha0 alphashrink tmax tmin    integrator halfstepback 
     0.1        20    1.1      0.5   0.25        0.99   10 0.02 eulerimplicit          yes 
WARNING: Bond/angle/dihedral extent > half of periodic box length (src/domain.cpp:940)
Per MPI rank memory allocation (min/avg/max) = 16.07 | 16.61 | 17.01 Mbytes
   Step          Temp          E_pair         E_mol          TotEng         Press     
     50437   0              135.43019      22.490681      157.92087      108381.46    
     60437   6.6073262e-07  122.04078      23.084304      145.12508      94496.205    
WARNING: Bond/angle/dihedral extent > half of periodic box length (src/domain.cpp:940)
Loop time of 7.50342 on 40 procs for 10000 steps with 68 atoms

101.5% CPU use with 20 MPI tasks x 2 OpenMP threads

Minimization stats:
  Stopping criterion = max iterations
  Energy initial, next-to-last, final = 
      157.920866271161    145.12510762127   145.125084666764
  Force two-norm initial, final = 256.05359 0.027978318
  Force max component initial, final = 152.04375 0.010224948
  Final line search alpha, max atom move = 0 0
  Iterations, force evaluations = 10000 10542

MPI task timing breakdown:
Section |  min time  |  avg time  |  max time  |%varavg| %total
---------------------------------------------------------------
Pair    | 0.29077    | 1.2283     | 1.6782     |  37.9 | 16.37
Bond    | 0.0048993  | 0.33974    | 0.61674    |  43.4 |  4.53
Neigh   | 0          | 0          | 0          |   0.0 |  0.00
Comm    | 3.6275     | 4.5505     | 6.698      |  43.9 | 60.64
Output  | 8.1537e-05 | 9.1091e-05 | 0.00010719 |   0.0 |  0.00
Modify  | 0.0024392  | 0.8501     | 1.2175     |  40.4 | 11.33
Other   |            | 0.5348     |            |       |  7.13

Nlocal:            3.4 ave           8 max           0 min
Histogram: 3 4 1 2 0 2 3 3 1 1
Nghost:        12253.6 ave       12622 max       11701 min
Histogram: 2 1 1 2 2 0 3 2 4 3
Neighs:           2141 ave        4928 max           0 min
Histogram: 3 4 1 2 0 2 3 3 1 1

Total # of neighbors = 42820
Ave neighs/atom = 629.70588
Ave special neighs/atom = 4.9411765
Neighbor list builds = 0
Dangerous builds = 0
variable        AtomMinStep equal $(step)
variable        AtomMinStep equal 60437
variable        temppe     equal $(pe)
variable        temppe     equal 145.12508466676374042
variable        min_E      equal abs(${prev_E}-${temppe})
variable        min_E      equal abs(146.71526200829-${temppe})
variable        min_E      equal abs(146.71526200829-145.125084666764)
print           "${iter},${CellMinStep},${AtomMinStep},${AtomMinStep},$(pe),${min_E}" append p1_structure.min.csv screen no
if              "${min_E} < ${min_eval}" then "jump SELF break_min"
variable        prev_E     equal ${temppe}
variable        prev_E     equal 145.125084666764
next            iter
jump            SELF loop_min
min_style       cg
fix             1 all box/relax tri 100000 vmax 0.05
minimize        1.0e-15 1.0e-15 10000 100000
WARNING: Using 'neigh_modify every 1 delay 0 check yes' setting during minimization (src/min.cpp:187)
----------------------------------------------------------
Using INTEL Package without Coprocessor.
Compiler: Intel LLVM C++ 202202.0 / Intel(R) oneAPI DPC++/C++ Compiler 2022.2.1 (2022.2.1.20221020)
SIMD compiler directives: Enabled
Precision: mixed
----------------------------------------------------------
Generated 6 of 6 mixed pair_coeff terms from arithmetic mixing rule
WARNING: Proc sub-domain size < neighbor skin, could lead to lost atoms (src/domain.cpp:970)
WARNING: Bond/angle/dihedral extent > half of periodic box length (src/domain.cpp:940)
Per MPI rank memory allocation (min/avg/max) = 17.2 | 17.75 | 18.14 Mbytes
   Step          Temp          E_pair         E_mol          TotEng         Press          Volume    
     60437   6.6073262e-07  122.04078      23.084301      145.12508      94496.183      687.9835     
     60440   6.6073262e-07  124.58484      22.534583      147.11942      101615.08      686.45065    
WARNING: Bond/angle/dihedral extent > half of periodic box length (src/domain.cpp:940)
Loop time of 0.0963503 on 40 procs for 3 steps with 68 atoms

105.6% CPU use with 20 MPI tasks x 2 OpenMP threads

Minimization stats:
  Stopping criterion = linesearch alpha is zero
  Energy initial, next-to-last, final = 
      145.125084184004   144.883909843518   144.883909843518
  Force two-norm initial, final = 190.1311 45.949458
  Force max component initial, final = 188.73338 30.481539
  Final line search alpha, max atom move = 3.055366e-12 9.3132257e-11
  Iterations, force evaluations = 3 96

MPI task timing breakdown:
Section |  min time  |  avg time  |  max time  |%varavg| %total
---------------------------------------------------------------
Pair    | 0.0023038  | 0.016855   | 0.026859   |   7.3 | 17.49
Bond    | 5.5528e-05 | 0.0045204  | 0.0090296  |   5.9 |  4.69
Neigh   | 0.001304   | 0.0014471  | 0.0015571  |   0.2 |  1.50
Comm    | 0.031373   | 0.049572   | 0.073082   |   7.4 | 51.45
Output  | 0          | 0          | 0          |   0.0 |  0.00
Modify  | 2.2019e-05 | 0.0049669  | 0.010539   |   5.2 |  5.16
Other   |            | 0.01899    |            |       | 19.71

Nlocal:            3.4 ave           8 max           0 min
Histogram: 6 1 1 0 0 3 6 0 1 2
Nghost:        12297.3 ave       12635 max       11851 min
Histogram: 1 3 1 3 0 2 0 3 3 4
Neighs:        2147.55 ave        4991 max           0 min
Histogram: 6 1 1 0 1 2 6 0 0 3

Total # of neighbors = 42951
Ave neighs/atom = 631.63235
Ave special neighs/atom = 4.9411765
Neighbor list builds = 2
Dangerous builds = 2
unfix           1
min_style       fire
variable        tempstp    equal $(step)
variable        tempstp    equal 60440
variable        CellMinStep equal ${tempstp}
variable        CellMinStep equal 60440
minimize        1.0e-15 1.0e-15 10000 100000
WARNING: Using 'neigh_modify every 1 delay 0 check yes' setting during minimization (src/min.cpp:187)
----------------------------------------------------------
Using INTEL Package without Coprocessor.
Compiler: Intel LLVM C++ 202202.0 / Intel(R) oneAPI DPC++/C++ Compiler 2022.2.1 (2022.2.1.20221020)
SIMD compiler directives: Enabled
Precision: mixed
----------------------------------------------------------
Generated 6 of 6 mixed pair_coeff terms from arithmetic mixing rule
WARNING: Proc sub-domain size < neighbor skin, could lead to lost atoms (src/domain.cpp:970)
  Parameters for fire: 
    dmax delaystep dtgrow dtshrink alpha0 alphashrink tmax tmin    integrator halfstepback 
     0.1        20    1.1      0.5   0.25        0.99   10 0.02 eulerimplicit          yes 
WARNING: Bond/angle/dihedral extent > half of periodic box length (src/domain.cpp:940)
Per MPI rank memory allocation (min/avg/max) = 16.07 | 16.62 | 17.01 Mbytes
   Step          Temp          E_pair         E_mol          TotEng         Press     
     60440   0              124.58484      22.534583      147.11942      101615.08    
     70440   1.4429085e-06  123.78768      23.094908      146.88259      96392.827    
WARNING: Bond/angle/dihedral extent > half of periodic box length (src/domain.cpp:940)
Loop time of 7.35399 on 40 procs for 10000 steps with 68 atoms

101.6% CPU use with 20 MPI tasks x 2 OpenMP threads

Minimization stats:
  Stopping criterion = max iterations
  Energy initial, next-to-last, final = 
      147.119423916341   146.882673307432   146.882587635953
  Force two-norm initial, final = 18.789728 0.017614085
  Force max component initial, final = 4.0114407 0.0047991423
  Final line search alpha, max atom move = 0 0
  Iterations, force evaluations = 10000 10540

MPI task timing breakdown:
Section |  min time  |  avg time  |  max time  |%varavg| %total
---------------------------------------------------------------
Pair    | 0.26795    | 1.1198     | 1.7012     |  48.0 | 15.23
Bond    | 0.0042565  | 0.31053    | 0.60478    |  47.6 |  4.22
Neigh   | 0          | 0          | 0          |   0.0 |  0.00
Comm    | 3.4314     | 4.7123     | 6.5122     |  53.3 | 64.08
Output  | 3.5907e-05 | 4.5203e-05 | 5.5949e-05 |   0.0 |  0.00
Modify  | 0.0023057  | 0.69434    | 1.1849     |  55.5 |  9.44
Other   |            | 0.517      |            |       |  7.03

Nlocal:            3.4 ave           8 max           0 min
Histogram: 6 1 1 0 0 3 6 0 1 2
Nghost:        12297.3 ave       12635 max       11851 min
Histogram: 1 3 1 3 0 2 0 3 3 4
Neighs:        2147.55 ave        4991 max           0 min
Histogram: 6 1 1 0 1 2 6 0 0 3

Total # of neighbors = 42951
Ave neighs/atom = 631.63235
Ave special neighs/atom = 4.9411765
Neighbor list builds = 0
Dangerous builds = 0
variable        AtomMinStep equal $(step)
variable        AtomMinStep equal 70440
variable        temppe     equal $(pe)
variable        temppe     equal 146.88258763595266032
variable        min_E      equal abs(${prev_E}-${temppe})
variable        min_E      equal abs(145.125084666764-${temppe})
variable        min_E      equal abs(145.125084666764-146.882587635953)
print           "${iter},${CellMinStep},${AtomMinStep},${AtomMinStep},$(pe),${min_E}" append p1_structure.min.csv screen no
if              "${min_E} < ${min_eval}" then "jump SELF break_min"
variable        prev_E     equal ${temppe}
variable        prev_E     equal 146.882587635953
next            iter
jump            SELF loop_min
min_style       cg
fix             1 all box/relax tri 100000 vmax 0.05
minimize        1.0e-15 1.0e-15 10000 100000
WARNING: Using 'neigh_modify every 1 delay 0 check yes' setting during minimization (src/min.cpp:187)
----------------------------------------------------------
Using INTEL Package without Coprocessor.
Compiler: Intel LLVM C++ 202202.0 / Intel(R) oneAPI DPC++/C++ Compiler 2022.2.1 (2022.2.1.20221020)
SIMD compiler directives: Enabled
Precision: mixed
----------------------------------------------------------
Generated 6 of 6 mixed pair_coeff terms from arithmetic mixing rule
WARNING: Proc sub-domain size < neighbor skin, could lead to lost atoms (src/domain.cpp:970)
WARNING: Bond/angle/dihedral extent > half of periodic box length (src/domain.cpp:940)
Per MPI rank memory allocation (min/avg/max) = 17.2 | 17.75 | 18.14 Mbytes
   Step          Temp          E_pair         E_mol          TotEng         Press          Volume    
     70440   1.4429085e-06  123.78765      23.094922      146.88257      96392.789      686.45065    
     70469   1.4429085e-06  124.90762      22.197663      147.10529      100516.92      685.85381    
WARNING: Bond/angle/dihedral extent > half of periodic box length (src/domain.cpp:940)
Loop time of 0.229022 on 40 procs for 29 steps with 68 atoms

104.7% CPU use with 20 MPI tasks x 2 OpenMP threads

Minimization stats:
  Stopping criterion = linesearch alpha is zero
  Energy initial, next-to-last, final = 
      146.882569572969   146.233248743114   146.234867799545
  Force two-norm initial, final = 160.69887 13.084703
  Force max component initial, final = 156.20381 8.2233042
  Final line search alpha, max atom move = 5.8411208e-11 4.8033313e-10
  Iterations, force evaluations = 29 183

MPI task timing breakdown:
Section |  min time  |  avg time  |  max time  |%varavg| %total
---------------------------------------------------------------
Pair    | 0.0041795  | 0.033645   | 0.051197   |   9.4 | 14.69
Bond    | 0.00012468 | 0.0096547  | 0.018006   |   7.5 |  4.22
Neigh   | 0.0214     | 0.022284   | 0.023512   |   0.5 |  9.73
Comm    | 0.077178   | 0.11206    | 0.1633     |   9.4 | 48.93
Output  | 0          | 0          | 0          |   0.0 |  0.00
Modify  | 6.4185e-05 | 0.011573   | 0.0212     |   7.1 |  5.05
Other   |            | 0.0398     |            |       | 17.38

Nlocal:            3.4 ave           8 max           0 min
Histogram: 5 1 2 2 0 1 5 2 0 2
Nghost:        11610.4 ave       11952 max       11242 min
Histogram: 2 2 0 1 3 4 2 2 2 2
Neighs:         2066.9 ave        4838 max           0 min
Histogram: 5 1 2 2 0 1 5 2 0 2

Total # of neighbors = 41338
Ave neighs/atom = 607.91176
Ave special neighs/atom = 4.9411765
Neighbor list builds = 32
Dangerous builds = 17
unfix           1
min_style       fire
variable        tempstp    equal $(step)
variable        tempstp    equal 70469
variable        CellMinStep equal ${tempstp}
variable        CellMinStep equal 70469
minimize        1.0e-15 1.0e-15 10000 100000
WARNING: Using 'neigh_modify every 1 delay 0 check yes' setting during minimization (src/min.cpp:187)
----------------------------------------------------------
Using INTEL Package without Coprocessor.
Compiler: Intel LLVM C++ 202202.0 / Intel(R) oneAPI DPC++/C++ Compiler 2022.2.1 (2022.2.1.20221020)
SIMD compiler directives: Enabled
Precision: mixed
----------------------------------------------------------
Generated 6 of 6 mixed pair_coeff terms from arithmetic mixing rule
WARNING: Proc sub-domain size < neighbor skin, could lead to lost atoms (src/domain.cpp:970)
  Parameters for fire: 
    dmax delaystep dtgrow dtshrink alpha0 alphashrink tmax tmin    integrator halfstepback 
     0.1        20    1.1      0.5   0.25        0.99   10 0.02 eulerimplicit          yes 
WARNING: Bond/angle/dihedral extent > half of periodic box length (src/domain.cpp:940)
Per MPI rank memory allocation (min/avg/max) = 16.07 | 16.63 | 17.01 Mbytes
   Step          Temp          E_pair         E_mol          TotEng         Press     
     70469   0              124.90601      22.197663      147.10367      100516.59    
     80469   2.9437165e-06  123.67308      23.050653      146.72374      97172.997    
WARNING: Bond/angle/dihedral extent > half of periodic box length (src/domain.cpp:940)
Loop time of 7.27909 on 40 procs for 10000 steps with 68 atoms

101.6% CPU use with 20 MPI tasks x 2 OpenMP threads

Minimization stats:
  Stopping criterion = max iterations
  Energy initial, next-to-last, final = 
      147.103669272965   146.723730445776   146.723734895268
  Force two-norm initial, final = 8.3967577 0.021898896
  Force max component initial, final = 1.6051048 0.0066123729
  Final line search alpha, max atom move = 0 0
  Iterations, force evaluations = 10000 10540

MPI task timing breakdown:
Section |  min time  |  avg time  |  max time  |%varavg| %total
---------------------------------------------------------------
Pair    | 0.29844    | 1.1277     | 1.6846     |  45.1 | 15.49
Bond    | 0.0049276  | 0.31978    | 0.6028     |  44.9 |  4.39
Neigh   | 0          | 0          | 0          |   0.0 |  0.00
Comm    | 3.432      | 4.6104     | 6.4308     |  51.1 | 63.34
Output  | 5.0904e-05 | 5.2594e-05 | 6.9827e-05 |   0.0 |  0.00
Modify  | 0.0021169  | 0.71254    | 1.108      |  50.2 |  9.79
Other   |            | 0.5086     |            |       |  6.99

Nlocal:            3.4 ave           8 max           0 min
Histogram: 5 1 2 2 0 1 5 2 0 2
Nghost:        12320.9 ave       12556 max       11980 min
Histogram: 2 2 0 1 1 3 3 0 4 4
Neighs:         2150.8 ave        4994 max           0 min
Histogram: 5 1 2 2 0 1 5 2 0 2

Total # of neighbors = 43016
Ave neighs/atom = 632.58824
Ave special neighs/atom = 4.9411765
Neighbor list builds = 0
Dangerous builds = 0
variable        AtomMinStep equal $(step)
variable        AtomMinStep equal 80469
variable        temppe     equal $(pe)
variable        temppe     equal 146.723734895267512
variable        min_E      equal abs(${prev_E}-${temppe})
variable        min_E      equal abs(146.882587635953-${temppe})
variable        min_E      equal abs(146.882587635953-146.723734895268)
print           "${iter},${CellMinStep},${AtomMinStep},${AtomMinStep},$(pe),${min_E}" append p1_structure.min.csv screen no
if              "${min_E} < ${min_eval}" then "jump SELF break_min"
variable        prev_E     equal ${temppe}
variable        prev_E     equal 146.723734895268
next            iter
jump            SELF loop_min
min_style       cg
fix             1 all box/relax tri 100000 vmax 0.05
minimize        1.0e-15 1.0e-15 10000 100000
WARNING: Using 'neigh_modify every 1 delay 0 check yes' setting during minimization (src/min.cpp:187)
----------------------------------------------------------
Using INTEL Package without Coprocessor.
Compiler: Intel LLVM C++ 202202.0 / Intel(R) oneAPI DPC++/C++ Compiler 2022.2.1 (2022.2.1.20221020)
SIMD compiler directives: Enabled
Precision: mixed
----------------------------------------------------------
Generated 6 of 6 mixed pair_coeff terms from arithmetic mixing rule
WARNING: Proc sub-domain size < neighbor skin, could lead to lost atoms (src/domain.cpp:970)
WARNING: Bond/angle/dihedral extent > half of periodic box length (src/domain.cpp:940)
Per MPI rank memory allocation (min/avg/max) = 17.2 | 17.76 | 18.14 Mbytes
   Step          Temp          E_pair         E_mol          TotEng         Press          Volume    
     80469   2.9437165e-06  123.67307      23.050666      146.72374      97173.051      685.85381    
     80471   2.9437165e-06  125.01015      22.850018      147.86017      101243.78      685.01242    
WARNING: Bond/angle/dihedral extent > half of periodic box length (src/domain.cpp:940)
Loop time of 0.0581405 on 40 procs for 2 steps with 68 atoms

107.1% CPU use with 20 MPI tasks x 2 OpenMP threads

Minimization stats:
  Stopping criterion = linesearch alpha is zero
  Energy initial, next-to-last, final = 
      146.723738098541    146.63307629424    146.63307629424
  Force two-norm initial, final = 124.40764 35.202303
  Force max component initial, final = 120.03481 24.275488
  Final line search alpha, max atom move = 7.4267685e-12 1.8028843e-10
  Iterations, force evaluations = 2 56

MPI task timing breakdown:
Section |  min time  |  avg time  |  max time  |%varavg| %total
---------------------------------------------------------------
Pair    | 0.0014824  | 0.01019    | 0.016107   |   5.1 | 17.53
Bond    | 3.283e-05  | 0.0028038  | 0.0053624  |   4.2 |  4.82
Neigh   | 0.0011991  | 0.0013222  | 0.0014803  |   0.3 |  2.27
Comm    | 0.018635   | 0.029489   | 0.044199   |   5.4 | 50.72
Output  | 0          | 0          | 0          |   0.0 |  0.00
Modify  | 1.4886e-05 | 0.0031944  | 0.0059312  |   3.7 |  5.49
Other   |            | 0.01114    |            |       | 19.16

Nlocal:            3.4 ave           8 max           0 min
Histogram: 5 3 0 2 0 2 3 2 0 3
Nghost:        12350.1 ave       12604 max       11976 min
Histogram: 2 2 0 0 1 3 4 4 1 3
Neighs:        2153.85 ave        5103 max           0 min
Histogram: 5 3 0 2 2 0 3 2 0 3

Total # of neighbors = 43077
Ave neighs/atom = 633.48529
Ave special neighs/atom = 4.9411765
Neighbor list builds = 2
Dangerous builds = 2
unfix           1
min_style       fire
variable        tempstp    equal $(step)
variable        tempstp    equal 80471
variable        CellMinStep equal ${tempstp}
variable        CellMinStep equal 80471
minimize        1.0e-15 1.0e-15 10000 100000
WARNING: Using 'neigh_modify every 1 delay 0 check yes' setting during minimization (src/min.cpp:187)
----------------------------------------------------------
Using INTEL Package without Coprocessor.
Compiler: Intel LLVM C++ 202202.0 / Intel(R) oneAPI DPC++/C++ Compiler 2022.2.1 (2022.2.1.20221020)
SIMD compiler directives: Enabled
Precision: mixed
----------------------------------------------------------
Generated 6 of 6 mixed pair_coeff terms from arithmetic mixing rule
WARNING: Proc sub-domain size < neighbor skin, could lead to lost atoms (src/domain.cpp:970)
  Parameters for fire: 
    dmax delaystep dtgrow dtshrink alpha0 alphashrink tmax tmin    integrator halfstepback 
     0.1        20    1.1      0.5   0.25        0.99   10 0.02 eulerimplicit          yes 
WARNING: Bond/angle/dihedral extent > half of periodic box length (src/domain.cpp:940)
Per MPI rank memory allocation (min/avg/max) = 16.07 | 16.63 | 17.01 Mbytes
   Step          Temp          E_pair         E_mol          TotEng         Press     
     80471   0              125.01015      22.850018      147.86017      101243.78    
     90471   5.6074295e-07  124.74371      23.006639      147.75035      98231.21     
WARNING: Bond/angle/dihedral extent > half of periodic box length (src/domain.cpp:940)
Loop time of 7.19883 on 40 procs for 10000 steps with 68 atoms

102.3% CPU use with 20 MPI tasks x 2 OpenMP threads

Minimization stats:
  Stopping criterion = max iterations
  Energy initial, next-to-last, final = 
      147.860167918946   147.750259893994   147.750353902651
  Force two-norm initial, final = 13.409744 0.012943707
  Force max component initial, final = 2.9098778 0.0039684409
  Final line search alpha, max atom move = 0 0
  Iterations, force evaluations = 10000 10533

MPI task timing breakdown:
Section |  min time  |  avg time  |  max time  |%varavg| %total
---------------------------------------------------------------
Pair    | 0.28536    | 1.1074     | 1.7465     |  46.1 | 15.38
Bond    | 0.0044853  | 0.28496    | 0.60544    |  43.6 |  3.96
Neigh   | 0          | 0          | 0          |   0.0 |  0.00
Comm    | 3.2216     | 4.6311     | 6.4113     |  50.5 | 64.33
Output  | 4.3439e-05 | 4.4617e-05 | 5.5506e-05 |   0.0 |  0.00
Modify  | 0.002509   | 0.69325    | 1.1973     |  50.4 |  9.63
Other   |            | 0.4821     |            |       |  6.70

Nlocal:            3.4 ave           8 max           0 min
Histogram: 5 3 0 2 0 2 3 2 0 3
Nghost:        12350.1 ave       12604 max       11976 min
Histogram: 2 2 0 0 1 3 4 4 1 3
Neighs:        2153.85 ave        5103 max           0 min
Histogram: 5 3 0 2 2 0 3 2 0 3

Total # of neighbors = 43077
Ave neighs/atom = 633.48529
Ave special neighs/atom = 4.9411765
Neighbor list builds = 0
Dangerous builds = 0
variable        AtomMinStep equal $(step)
variable        AtomMinStep equal 90471
variable        temppe     equal $(pe)
variable        temppe     equal 147.75035390265057345
variable        min_E      equal abs(${prev_E}-${temppe})
variable        min_E      equal abs(146.723734895268-${temppe})
variable        min_E      equal abs(146.723734895268-147.750353902651)
print           "${iter},${CellMinStep},${AtomMinStep},${AtomMinStep},$(pe),${min_E}" append p1_structure.min.csv screen no
if              "${min_E} < ${min_eval}" then "jump SELF break_min"
variable        prev_E     equal ${temppe}
variable        prev_E     equal 147.750353902651
next            iter
jump            SELF loop_min
min_style       cg
fix             1 all box/relax tri 100000 vmax 0.05
minimize        1.0e-15 1.0e-15 10000 100000
WARNING: Using 'neigh_modify every 1 delay 0 check yes' setting during minimization (src/min.cpp:187)
----------------------------------------------------------
Using INTEL Package without Coprocessor.
Compiler: Intel LLVM C++ 202202.0 / Intel(R) oneAPI DPC++/C++ Compiler 2022.2.1 (2022.2.1.20221020)
SIMD compiler directives: Enabled
Precision: mixed
----------------------------------------------------------
Generated 6 of 6 mixed pair_coeff terms from arithmetic mixing rule
WARNING: Proc sub-domain size < neighbor skin, could lead to lost atoms (src/domain.cpp:970)
WARNING: Bond/angle/dihedral extent > half of periodic box length (src/domain.cpp:940)
Per MPI rank memory allocation (min/avg/max) = 17.2 | 17.76 | 18.14 Mbytes
   Step          Temp          E_pair         E_mol          TotEng         Press          Volume    
     90471   5.6074295e-07  124.74371      23.006639      147.75035      98231.209      685.01242    
     90485   5.6074295e-07  125.63744      22.38728       148.02472      102735.46      684.64166    
WARNING: Bond/angle/dihedral extent > half of periodic box length (src/domain.cpp:940)
Loop time of 0.137293 on 40 procs for 14 steps with 68 atoms

105.4% CPU use with 20 MPI tasks x 2 OpenMP threads

Minimization stats:
  Stopping criterion = linesearch alpha is zero
  Energy initial, next-to-last, final = 
      147.750352615566   147.484010913347   147.484010913347
  Force two-norm initial, final = 112.41817 59.107038
  Force max component initial, final = 103.7417 53.909692
  Final line search alpha, max atom move = 3.5310775e-12 1.903593e-10
  Iterations, force evaluations = 14 116

MPI task timing breakdown:
Section |  min time  |  avg time  |  max time  |%varavg| %total
---------------------------------------------------------------
Pair    | 0.0027223  | 0.021509   | 0.032953   |   6.6 | 15.67
Bond    | 7.3983e-05 | 0.0051508  | 0.011016   |   6.0 |  3.75
Neigh   | 0.010062   | 0.010562   | 0.011054   |   0.3 |  7.69
Comm    | 0.046545   | 0.068172   | 0.098922   |   6.5 | 49.65
Output  | 0          | 0          | 0          |   0.0 |  0.00
Modify  | 2.9641e-05 | 0.0064455  | 0.012973   |   4.9 |  4.69
Other   |            | 0.02545    |            |       | 18.54

Nlocal:            3.4 ave           8 max           0 min
Histogram: 4 4 0 3 0 1 2 3 1 2
Nghost:          12328 ave       12630 max       11965 min
Histogram: 4 0 0 0 4 4 0 4 2 2
Neighs:         2155.8 ave        5100 max           0 min
Histogram: 4 4 0 3 1 0 2 3 1 2

Total # of neighbors = 43116
Ave neighs/atom = 634.05882
Ave special neighs/atom = 4.9411765
Neighbor list builds = 14
Dangerous builds = 7
unfix           1
min_style       fire
variable        tempstp    equal $(step)
variable        tempstp    equal 90485
variable        CellMinStep equal ${tempstp}
variable        CellMinStep equal 90485
minimize        1.0e-15 1.0e-15 10000 100000
WARNING: Using 'neigh_modify every 1 delay 0 check yes' setting during minimization (src/min.cpp:187)
----------------------------------------------------------
Using INTEL Package without Coprocessor.
Compiler: Intel LLVM C++ 202202.0 / Intel(R) oneAPI DPC++/C++ Compiler 2022.2.1 (2022.2.1.20221020)
SIMD compiler directives: Enabled
Precision: mixed
----------------------------------------------------------
Generated 6 of 6 mixed pair_coeff terms from arithmetic mixing rule
WARNING: Proc sub-domain size < neighbor skin, could lead to lost atoms (src/domain.cpp:970)
  Parameters for fire: 
    dmax delaystep dtgrow dtshrink alpha0 alphashrink tmax tmin    integrator halfstepback 
     0.1        20    1.1      0.5   0.25        0.99   10 0.02 eulerimplicit          yes 
WARNING: Bond/angle/dihedral extent > half of periodic box length (src/domain.cpp:940)
Per MPI rank memory allocation (min/avg/max) = 16.07 | 16.63 | 17.01 Mbytes
   Step          Temp          E_pair         E_mol          TotEng         Press     
     90485   0              125.63744      22.38728       148.02472      102735.46    
    100485   2.4097618e-08  124.93137      22.920703      147.85207      98925.694    
WARNING: Bond/angle/dihedral extent > half of periodic box length (src/domain.cpp:940)
Loop time of 7.08276 on 40 procs for 10000 steps with 68 atoms

102.7% CPU use with 20 MPI tasks x 2 OpenMP threads

Minimization stats:
  Stopping criterion = max iterations
  Energy initial, next-to-last, final = 
      148.024718994635   147.852071727154    147.85206963782
  Force two-norm initial, final = 12.619377 0.0086110686
  Force max component initial, final = 3.3357153 0.0032466115
  Final line search alpha, max atom move = 0 0
  Iterations, force evaluations = 10000 10529

MPI task timing breakdown:
Section |  min time  |  avg time  |  max time  |%varavg| %total
---------------------------------------------------------------
Pair    | 0.27815    | 1.1153     | 1.7221     |  43.9 | 15.75
Bond    | 0.0045452  | 0.27594    | 0.59494    |  44.0 |  3.90
Neigh   | 0          | 0          | 0          |   0.0 |  0.00
Comm    | 3.1938     | 4.4962     | 6.3677     |  48.5 | 63.48
Output  | 0.00023315 | 0.00027347 | 0.0003727  |   0.0 |  0.00
Modify  | 0.0023255  | 0.72116    | 1.1519     |  46.2 | 10.18
Other   |            | 0.4738     |            |       |  6.69

Nlocal:            3.4 ave           8 max           0 min
Histogram: 4 4 0 3 0 1 2 3 1 2
Nghost:          12328 ave       12630 max       11965 min
Histogram: 4 0 0 0 4 4 0 4 2 2
Neighs:         2155.5 ave        5096 max           0 min
Histogram: 4 4 0 3 1 0 2 3 1 2

Total # of neighbors = 43110
Ave neighs/atom = 633.97059
Ave special neighs/atom = 4.9411765
Neighbor list builds = 0
Dangerous builds = 0
variable        AtomMinStep equal $(step)
variable        AtomMinStep equal 100485
variable        temppe     equal $(pe)
variable        temppe     equal 147.85206963781982381
variable        min_E      equal abs(${prev_E}-${temppe})
variable        min_E      equal abs(147.750353902651-${temppe})
variable        min_E      equal abs(147.750353902651-147.85206963782)
print           "${iter},${CellMinStep},${AtomMinStep},${AtomMinStep},$(pe),${min_E}" append p1_structure.min.csv screen no
if              "${min_E} < ${min_eval}" then "jump SELF break_min"
variable        prev_E     equal ${temppe}
variable        prev_E     equal 147.85206963782
next            iter
jump            SELF loop_min
min_style       cg
fix             1 all box/relax tri 100000 vmax 0.05
minimize        1.0e-15 1.0e-15 10000 100000
WARNING: Using 'neigh_modify every 1 delay 0 check yes' setting during minimization (src/min.cpp:187)
----------------------------------------------------------
Using INTEL Package without Coprocessor.
Compiler: Intel LLVM C++ 202202.0 / Intel(R) oneAPI DPC++/C++ Compiler 2022.2.1 (2022.2.1.20221020)
SIMD compiler directives: Enabled
Precision: mixed
----------------------------------------------------------
Generated 6 of 6 mixed pair_coeff terms from arithmetic mixing rule
WARNING: Proc sub-domain size < neighbor skin, could lead to lost atoms (src/domain.cpp:970)
WARNING: Bond/angle/dihedral extent > half of periodic box length (src/domain.cpp:940)
Per MPI rank memory allocation (min/avg/max) = 17.2 | 17.76 | 18.14 Mbytes
   Step          Temp          E_pair         E_mol          TotEng         Press          Volume    
    100485   2.4097618e-08  124.93137      22.920703      147.85207      98925.694      684.64166    
    100491   2.4097618e-08  123.4445       22.722414      146.16691      100267.39      685.69915    
WARNING: Bond/angle/dihedral extent > half of periodic box length (src/domain.cpp:940)
Loop time of 0.121309 on 40 procs for 6 steps with 68 atoms

106.5% CPU use with 20 MPI tasks x 2 OpenMP threads

Minimization stats:
  Stopping criterion = linesearch alpha is zero
  Energy initial, next-to-last, final = 
      147.852070502251   147.709151639599   147.709151639599
  Force two-norm initial, final = 99.753567 30.000164
  Force max component initial, final = 87.698872 20.204581
  Final line search alpha, max atom move = 9.2189247e-12 1.8626451e-10
  Iterations, force evaluations = 6 112

MPI task timing breakdown:
Section |  min time  |  avg time  |  max time  |%varavg| %total
---------------------------------------------------------------
Pair    | 0.002413   | 0.019881   | 0.03197    |   7.3 | 16.39
Bond    | 6.7983e-05 | 0.005518   | 0.011029   |   6.0 |  4.55
Neigh   | 0.0067217  | 0.0068779  | 0.0070448  |   0.1 |  5.67
Comm    | 0.038154   | 0.059665   | 0.088511   |   7.4 | 49.18
Output  | 0          | 0          | 0          |   0.0 |  0.00
Modify  | 4.2367e-05 | 0.0064585  | 0.013994   |   5.5 |  5.32
Other   |            | 0.02291    |            |       | 18.88

Nlocal:            3.4 ave           8 max           0 min
Histogram: 5 2 1 3 0 1 3 1 2 2
Nghost:        12293.1 ave       12626 max       11928 min
Histogram: 4 0 0 0 7 1 1 3 1 3
Neighs:        2151.55 ave        5087 max           0 min
Histogram: 5 2 1 3 1 0 3 1 2 2

Total # of neighbors = 43031
Ave neighs/atom = 632.80882
Ave special neighs/atom = 4.9411765
Neighbor list builds = 11
Dangerous builds = 4
unfix           1
min_style       fire
variable        tempstp    equal $(step)
variable        tempstp    equal 100491
variable        CellMinStep equal ${tempstp}
variable        CellMinStep equal 100491
minimize        1.0e-15 1.0e-15 10000 100000
WARNING: Using 'neigh_modify every 1 delay 0 check yes' setting during minimization (src/min.cpp:187)
----------------------------------------------------------
Using INTEL Package without Coprocessor.
Compiler: Intel LLVM C++ 202202.0 / Intel(R) oneAPI DPC++/C++ Compiler 2022.2.1 (2022.2.1.20221020)
SIMD compiler directives: Enabled
Precision: mixed
----------------------------------------------------------
Generated 6 of 6 mixed pair_coeff terms from arithmetic mixing rule
WARNING: Proc sub-domain size < neighbor skin, could lead to lost atoms (src/domain.cpp:970)
  Parameters for fire: 
    dmax delaystep dtgrow dtshrink alpha0 alphashrink tmax tmin    integrator halfstepback 
     0.1        20    1.1      0.5   0.25        0.99   10 0.02 eulerimplicit          yes 
WARNING: Bond/angle/dihedral extent > half of periodic box length (src/domain.cpp:940)
Per MPI rank memory allocation (min/avg/max) = 16.07 | 16.63 | 17.01 Mbytes
   Step          Temp          E_pair         E_mol          TotEng         Press     
    100491   0              123.4445       22.722414      146.16691      100267.39    
    110491   4.1222471e-08  123.13394      22.937122      146.07107      97711.31     
WARNING: Bond/angle/dihedral extent > half of periodic box length (src/domain.cpp:940)
Loop time of 7.33043 on 40 procs for 10000 steps with 68 atoms

101.9% CPU use with 20 MPI tasks x 2 OpenMP threads

Minimization stats:
  Stopping criterion = max iterations
  Energy initial, next-to-last, final = 
      146.166910872592   146.071003022108   146.071066916911
  Force two-norm initial, final = 9.3442764 0.0093908355
  Force max component initial, final = 2.5877208 0.0033501294
  Final line search alpha, max atom move = 0 0
  Iterations, force evaluations = 10000 10529

MPI task timing breakdown:
Section |  min time  |  avg time  |  max time  |%varavg| %total
---------------------------------------------------------------
Pair    | 0.26591    | 1.1343     | 1.7378     |  44.5 | 15.47
Bond    | 0.0047363  | 0.30297    | 0.60721    |  44.1 |  4.13
Neigh   | 0          | 0          | 0          |   0.0 |  0.00
Comm    | 3.3775     | 4.6308     | 6.5506     |  51.2 | 63.17
Output  | 6.8848e-05 | 7.1079e-05 | 8.2268e-05 |   0.0 |  0.00
Modify  | 0.0022091  | 0.73578    | 1.2636     |  52.0 | 10.04
Other   |            | 0.5265     |            |       |  7.18

Nlocal:            3.4 ave           8 max           0 min
Histogram: 5 2 1 3 0 1 3 1 2 2
Nghost:        12285.4 ave       12612 max       11928 min
Histogram: 4 0 0 0 7 1 1 3 0 4
Neighs:         2151.7 ave        5089 max           0 min
Histogram: 5 2 1 3 1 0 3 1 2 2

Total # of neighbors = 43034
Ave neighs/atom = 632.85294
Ave special neighs/atom = 4.9411765
Neighbor list builds = 0
Dangerous builds = 0
variable        AtomMinStep equal $(step)
variable        AtomMinStep equal 110491
variable        temppe     equal $(pe)
variable        temppe     equal 146.0710669169113487
variable        min_E      equal abs(${prev_E}-${temppe})
variable        min_E      equal abs(147.85206963782-${temppe})
variable        min_E      equal abs(147.85206963782-146.071066916911)
print           "${iter},${CellMinStep},${AtomMinStep},${AtomMinStep},$(pe),${min_E}" append p1_structure.min.csv screen no
if              "${min_E} < ${min_eval}" then "jump SELF break_min"
variable        prev_E     equal ${temppe}
variable        prev_E     equal 146.071066916911
next            iter
jump            SELF loop_min
min_style       cg
fix             1 all box/relax tri 100000 vmax 0.05
minimize        1.0e-15 1.0e-15 10000 100000
WARNING: Using 'neigh_modify every 1 delay 0 check yes' setting during minimization (src/min.cpp:187)
----------------------------------------------------------
Using INTEL Package without Coprocessor.
Compiler: Intel LLVM C++ 202202.0 / Intel(R) oneAPI DPC++/C++ Compiler 2022.2.1 (2022.2.1.20221020)
SIMD compiler directives: Enabled
Precision: mixed
----------------------------------------------------------
Generated 6 of 6 mixed pair_coeff terms from arithmetic mixing rule
WARNING: Proc sub-domain size < neighbor skin, could lead to lost atoms (src/domain.cpp:970)
WARNING: Bond/angle/dihedral extent > half of periodic box length (src/domain.cpp:940)
Per MPI rank memory allocation (min/avg/max) = 17.2 | 17.76 | 18.14 Mbytes
   Step          Temp          E_pair         E_mol          TotEng         Press          Volume    
    110491   4.1222471e-08  123.13395      22.937122      146.07107      97711.312      685.69915    
    110524   4.1222471e-08  124.20081      22.878158      147.07897      100498.25      684.81563    
WARNING: Bond/angle/dihedral extent > half of periodic box length (src/domain.cpp:940)
Loop time of 0.413361 on 40 procs for 33 steps with 68 atoms

106.2% CPU use with 20 MPI tasks x 2 OpenMP threads

Minimization stats:
  Stopping criterion = linesearch alpha is zero
  Energy initial, next-to-last, final = 
      146.071070345117   145.790448473734   145.790448473734
  Force two-norm initial, final = 97.101765 20.627893
  Force max component initial, final = 89.741341 17.639503
  Final line search alpha, max atom move = 2.1119021e-11 3.7252903e-10
  Iterations, force evaluations = 33 356

MPI task timing breakdown:
Section |  min time  |  avg time  |  max time  |%varavg| %total
---------------------------------------------------------------
Pair    | 0.0087199  | 0.06996    | 0.10383    |  13.4 | 16.92
Bond    | 0.00030123 | 0.019217   | 0.035588   |  10.6 |  4.65
Neigh   | 0.022344   | 0.023124   | 0.023821   |   0.3 |  5.59
Comm    | 0.13041    | 0.19908    | 0.30579    |  14.5 | 48.16
Output  | 0          | 0          | 0          |   0.0 |  0.00
Modify  | 0.00012234 | 0.024467   | 0.042929   |  10.3 |  5.92
Other   |            | 0.07752    |            |       | 18.75

Nlocal:            3.4 ave           8 max           0 min
Histogram: 5 2 2 2 0 1 2 2 2 2
Nghost:        12293.8 ave       12626 max       11928 min
Histogram: 4 0 0 0 6 2 1 3 1 3
Neighs:        2155.25 ave        5094 max           0 min
Histogram: 5 2 2 2 1 0 2 2 2 2

Total # of neighbors = 43105
Ave neighs/atom = 633.89706
Ave special neighs/atom = 4.9411765
Neighbor list builds = 31
Dangerous builds = 8
unfix           1
min_style       fire
variable        tempstp    equal $(step)
variable        tempstp    equal 110524
variable        CellMinStep equal ${tempstp}
variable        CellMinStep equal 110524
minimize        1.0e-15 1.0e-15 10000 100000
WARNING: Using 'neigh_modify every 1 delay 0 check yes' setting during minimization (src/min.cpp:187)
----------------------------------------------------------
Using INTEL Package without Coprocessor.
Compiler: Intel LLVM C++ 202202.0 / Intel(R) oneAPI DPC++/C++ Compiler 2022.2.1 (2022.2.1.20221020)
SIMD compiler directives: Enabled
Precision: mixed
----------------------------------------------------------
Generated 6 of 6 mixed pair_coeff terms from arithmetic mixing rule
WARNING: Proc sub-domain size < neighbor skin, could lead to lost atoms (src/domain.cpp:970)
  Parameters for fire: 
    dmax delaystep dtgrow dtshrink alpha0 alphashrink tmax tmin    integrator halfstepback 
     0.1        20    1.1      0.5   0.25        0.99   10 0.02 eulerimplicit          yes 
WARNING: Bond/angle/dihedral extent > half of periodic box length (src/domain.cpp:940)
Per MPI rank memory allocation (min/avg/max) = 16.07 | 16.63 | 17.01 Mbytes
   Step          Temp          E_pair         E_mol          TotEng         Press     
    110524   0              124.20081      22.878158      147.07897      100498.25    
    120524   1.6244445e-08  123.99692      22.966031      146.96295      98849.208    
WARNING: Bond/angle/dihedral extent > half of periodic box length (src/domain.cpp:940)
Loop time of 7.38115 on 40 procs for 10000 steps with 68 atoms

102.2% CPU use with 20 MPI tasks x 2 OpenMP threads

Minimization stats:
  Stopping criterion = max iterations
  Energy initial, next-to-last, final = 
      147.078968031334   146.962938645383   146.962947964414
  Force two-norm initial, final = 6.7338934 0.013166613
  Force max component initial, final = 2.1451815 0.0050301006
  Final line search alpha, max atom move = 0 0
  Iterations, force evaluations = 10000 10526

MPI task timing breakdown:
Section |  min time  |  avg time  |  max time  |%varavg| %total
---------------------------------------------------------------
Pair    | 0.28151    | 1.1597     | 1.735      |  44.3 | 15.71
Bond    | 0.0047651  | 0.31168    | 0.61448    |  45.0 |  4.22
Neigh   | 0          | 0          | 0          |   0.0 |  0.00
Comm    | 3.3899     | 4.619      | 6.5972     |  52.7 | 62.58
Output  | 5.4121e-05 | 5.7588e-05 | 6.4927e-05 |   0.0 |  0.00
Modify  | 0.0023911  | 0.77138    | 1.2878     |  52.6 | 10.45
Other   |            | 0.5193     |            |       |  7.04

Nlocal:            3.4 ave           8 max           0 min
Histogram: 5 2 2 2 0 1 2 2 2 2
Nghost:        12293.8 ave       12626 max       11928 min
Histogram: 4 0 0 0 6 2 1 3 1 3
Neighs:         2154.6 ave        5090 max           0 min
Histogram: 5 2 2 2 1 0 2 2 2 2

Total # of neighbors = 43092
Ave neighs/atom = 633.70588
Ave special neighs/atom = 4.9411765
Neighbor list builds = 0
Dangerous builds = 0
variable        AtomMinStep equal $(step)
variable        AtomMinStep equal 120524
variable        temppe     equal $(pe)
variable        temppe     equal 146.96294796441395647
variable        min_E      equal abs(${prev_E}-${temppe})
[...]
  Energy initial, next-to-last, final = 
      146.592737397037   146.592866460487   146.592805741114
  Force two-norm initial, final = 0.010425902 0.011663966
  Force max component initial, final = 0.0033332728 0.0033053464
  Final line search alpha, max atom move = 0 0
  Iterations, force evaluations = 2069 4092

MPI task timing breakdown:
Section |  min time  |  avg time  |  max time  |%varavg| %total
---------------------------------------------------------------
Pair    | 0.09931    | 0.45568    | 0.66107    |  27.9 | 15.65
Bond    | 0.0014388  | 0.13732    | 0.24116    |  26.1 |  4.72
Neigh   | 0          | 0          | 0          |   0.0 |  0.00
Comm    | 1.3623     | 1.8325     | 2.632      |  31.4 | 62.92
Output  | 0          | 0          | 0          |   0.0 |  0.00
Modify  | 0.00081581 | 0.31506    | 0.50289    |  29.8 | 10.82
Other   |            | 0.1717     |            |       |  5.90

Nlocal:            3.4 ave           8 max           0 min
Histogram: 4 1 5 1 0 2 2 1 2 2
Nghost:          12031 ave       12343 max       11715 min
Histogram: 2 0 4 2 0 6 0 4 0 2
Neighs:         2155.6 ave        5105 max           0 min
Histogram: 4 1 5 1 0 2 2 1 2 2

Total # of neighbors = 43112
Ave neighs/atom = 634
Ave special neighs/atom = 4.9411765
Neighbor list builds = 0
Dangerous builds = 0
variable        AtomMinStep equal $(step)
variable        AtomMinStep equal 689058
variable        temppe     equal $(pe)
variable        temppe     equal 146.59280574111355122
variable        min_E      equal abs(${prev_E}-${temppe})
variable        min_E      equal abs(146.592737397037-${temppe})
variable        min_E      equal abs(146.592737397037-146.592805741114)
print           "${iter},${CellMinStep},${AtomMinStep},${AtomMinStep},$(pe),${min_E}" append p1_structure.min.csv screen no
if              "${min_E} < ${min_eval}" then "jump SELF break_min"
variable        prev_E     equal ${temppe}
variable        prev_E     equal 146.592805741114
next            iter
jump            SELF loop_min
min_style       cg
fix             1 all box/relax tri 100000 vmax 0.05
minimize        1.0e-15 1.0e-15 10000 100000
----------------------------------------------------------
Using INTEL Package without Coprocessor.
Compiler: Intel LLVM C++ 202202.0 / Intel(R) oneAPI DPC++/C++ Compiler 2022.2.1 (2022.2.1.20221020)
SIMD compiler directives: Enabled
Precision: mixed
----------------------------------------------------------
Generated 6 of 6 mixed pair_coeff terms from arithmetic mixing rule
Per MPI rank memory allocation (min/avg/max) = 17.21 | 17.79 | 18.16 Mbytes
   Step          Temp          E_pair         E_mol          TotEng         Press          Volume    
    689058   7.694011e-12   123.94965      22.643157      146.59281      99952.813      684.6955     
    689059   7.694011e-12   123.94965      22.643157      146.59281      99952.813      684.6955     
Loop time of 0.0576682 on 40 procs for 1 steps with 68 atoms

104.4% CPU use with 20 MPI tasks x 2 OpenMP threads

Minimization stats:
  Stopping criterion = linesearch alpha is zero
  Energy initial, next-to-last, final = 
      146.592805741113   146.592805741113   146.592805741113
  Force two-norm initial, final = 17.585658 17.585658
  Force max component initial, final = 14.753499 14.753499
  Final line search alpha, max atom move = 2.5250215e-11 3.7252903e-10
  Iterations, force evaluations = 1 51

MPI task timing breakdown:
Section |  min time  |  avg time  |  max time  |%varavg| %total
---------------------------------------------------------------
Pair    | 0.0011152  | 0.010553   | 0.015892   |   4.9 | 18.30
Bond    | 2.7062e-05 | 0.0029942  | 0.0050269  |   3.7 |  5.19
Neigh   | 0.0015471  | 0.0016517  | 0.0018003  |   0.2 |  2.86
Comm    | 0.018472   | 0.027922   | 0.044173   |   5.3 | 48.42
Output  | 0          | 0          | 0          |   0.0 |  0.00
Modify  | 1.1208e-05 | 0.00367    | 0.0061546  |   3.6 |  6.36
Other   |            | 0.01088    |            |       | 18.86

Nlocal:            3.4 ave           8 max           0 min
Histogram: 4 1 5 1 0 2 2 1 2 2
Nghost:          12031 ave       12343 max       11715 min
Histogram: 2 0 4 2 0 6 0 4 0 2
Neighs:         2155.6 ave        5101 max           0 min
Histogram: 4 1 5 1 0 2 2 1 2 2

Total # of neighbors = 43112
Ave neighs/atom = 634
Ave special neighs/atom = 4.9411765
Neighbor list builds = 2
Dangerous builds = 1
unfix           1
min_style       fire
variable        tempstp    equal $(step)
variable        tempstp    equal 689059
variable        CellMinStep equal ${tempstp}
variable        CellMinStep equal 689059
minimize        1.0e-15 1.0e-15 10000 100000
----------------------------------------------------------
Using INTEL Package without Coprocessor.
Compiler: Intel LLVM C++ 202202.0 / Intel(R) oneAPI DPC++/C++ Compiler 2022.2.1 (2022.2.1.20221020)
SIMD compiler directives: Enabled
Precision: mixed
----------------------------------------------------------
Generated 6 of 6 mixed pair_coeff terms from arithmetic mixing rule
  Parameters for fire: 
    dmax delaystep dtgrow dtshrink alpha0 alphashrink tmax tmin    integrator halfstepback 
     0.1        20    1.1      0.5   0.25        0.99   10 0.02 eulerimplicit          yes 
Per MPI rank memory allocation (min/avg/max) = 16.08 | 16.66 | 17.04 Mbytes
   Step          Temp          E_pair         E_mol          TotEng         Press     
    689059   0              123.94965      22.643157      146.59281      99952.813    
    691140   6.7531023e-12  123.94965      22.6431        146.59275      99952.43     
Loop time of 2.93003 on 40 procs for 2081 steps with 68 atoms

101.5% CPU use with 20 MPI tasks x 2 OpenMP threads

Minimization stats:
  Stopping criterion = max iterations with v.f negative
  Energy initial, next-to-last, final = 
      146.592805741113    146.59285330062   146.592749465848
  Force two-norm initial, final = 0.011663966 0.013564158
  Force max component initial, final = 0.0033053463 0.0040985034
  Final line search alpha, max atom move = 0 0
  Iterations, force evaluations = 2081 4105

MPI task timing breakdown:
Section |  min time  |  avg time  |  max time  |%varavg| %total
---------------------------------------------------------------
Pair    | 0.099576   | 0.45813    | 0.67069    |  28.4 | 15.64
Bond    | 0.0015101  | 0.13566    | 0.24276    |  26.2 |  4.63
Neigh   | 0          | 0          | 0          |   0.0 |  0.00
Comm    | 1.3403     | 1.8602     | 2.6952     |  33.0 | 63.49
Output  | 0          | 0          | 0          |   0.0 |  0.00
Modify  | 0.00080711 | 0.31872    | 0.52784    |  31.0 | 10.88
Other   |            | 0.1573     |            |       |  5.37

Nlocal:            3.4 ave           8 max           0 min
Histogram: 4 1 5 1 0 2 2 1 2 2
Nghost:          12031 ave       12343 max       11715 min
Histogram: 2 0 4 2 0 6 0 4 0 2
Neighs:         2155.6 ave        5105 max           0 min
Histogram: 4 1 5 1 0 2 2 1 2 2

Total # of neighbors = 43112
Ave neighs/atom = 634
Ave special neighs/atom = 4.9411765
Neighbor list builds = 0
Dangerous builds = 0
variable        AtomMinStep equal $(step)
variable        AtomMinStep equal 691140
variable        temppe     equal $(pe)
variable        temppe     equal 146.59274946584821464
variable        min_E      equal abs(${prev_E}-${temppe})
variable        min_E      equal abs(146.592805741114-${temppe})
variable        min_E      equal abs(146.592805741114-146.592749465848)
print           "${iter},${CellMinStep},${AtomMinStep},${AtomMinStep},$(pe),${min_E}" append p1_structure.min.csv screen no
if              "${min_E} < ${min_eval}" then "jump SELF break_min"
variable        prev_E     equal ${temppe}
variable        prev_E     equal 146.592749465848
next            iter
jump            SELF loop_min
min_style       cg
fix             1 all box/relax tri 100000 vmax 0.05
minimize        1.0e-15 1.0e-15 10000 100000
----------------------------------------------------------
Using INTEL Package without Coprocessor.
Compiler: Intel LLVM C++ 202202.0 / Intel(R) oneAPI DPC++/C++ Compiler 2022.2.1 (2022.2.1.20221020)
SIMD compiler directives: Enabled
Precision: mixed
----------------------------------------------------------
Generated 6 of 6 mixed pair_coeff terms from arithmetic mixing rule
Per MPI rank memory allocation (min/avg/max) = 17.21 | 17.79 | 18.16 Mbytes
   Step          Temp          E_pair         E_mol          TotEng         Press          Volume    
    691140   6.7531023e-12  123.94965      22.6431        146.59275      99952.43       684.6955     
    691141   6.7531023e-12  123.94965      22.6431        146.59275      99952.43       684.6955     
Loop time of 0.0564285 on 40 procs for 1 steps with 68 atoms

104.0% CPU use with 20 MPI tasks x 2 OpenMP threads

Minimization stats:
  Stopping criterion = linesearch alpha is zero
  Energy initial, next-to-last, final = 
      146.592749465848   146.592749465848   146.592749465848
  Force two-norm initial, final = 17.586813 17.586813
  Force max component initial, final = 14.754339 14.754339
  Final line search alpha, max atom move = 2.5248778e-11 3.7252903e-10
  Iterations, force evaluations = 1 50

MPI task timing breakdown:
Section |  min time  |  avg time  |  max time  |%varavg| %total
---------------------------------------------------------------
Pair    | 0.0010973  | 0.009886   | 0.015222   |   4.7 | 17.52
Bond    | 2.8548e-05 | 0.0029353  | 0.0048964  |   3.7 |  5.20
Neigh   | 0.0013916  | 0.0015045  | 0.0016499  |   0.2 |  2.67
Comm    | 0.018026   | 0.027942   | 0.043374   |   5.0 | 49.52
Output  | 0          | 0          | 0          |   0.0 |  0.00
Modify  | 1.0982e-05 | 0.00337    | 0.0061999  |   3.4 |  5.97
Other   |            | 0.01079    |            |       | 19.12

Nlocal:            3.4 ave           8 max           0 min
Histogram: 4 1 5 1 0 2 2 1 2 2
Nghost:          12031 ave       12343 max       11715 min
Histogram: 2 0 4 2 0 6 0 4 0 2
Neighs:         2155.6 ave        5101 max           0 min
Histogram: 4 1 5 1 0 2 2 1 2 2

Total # of neighbors = 43112
Ave neighs/atom = 634
Ave special neighs/atom = 4.9411765
Neighbor list builds = 2
Dangerous builds = 1
unfix           1
min_style       fire
variable        tempstp    equal $(step)
variable        tempstp    equal 691141
variable        CellMinStep equal ${tempstp}
variable        CellMinStep equal 691141
minimize        1.0e-15 1.0e-15 10000 100000
----------------------------------------------------------
Using INTEL Package without Coprocessor.
Compiler: Intel LLVM C++ 202202.0 / Intel(R) oneAPI DPC++/C++ Compiler 2022.2.1 (2022.2.1.20221020)
SIMD compiler directives: Enabled
Precision: mixed
----------------------------------------------------------
Generated 6 of 6 mixed pair_coeff terms from arithmetic mixing rule
  Parameters for fire: 
    dmax delaystep dtgrow dtshrink alpha0 alphashrink tmax tmin    integrator halfstepback 
     0.1        20    1.1      0.5   0.25        0.99   10 0.02 eulerimplicit          yes 
Per MPI rank memory allocation (min/avg/max) = 16.08 | 16.66 | 17.04 Mbytes
   Step          Temp          E_pair         E_mol          TotEng         Press     
    691141   0              123.94965      22.6431        146.59275      99952.43     
    693220   5.5118896e-12  123.94965      22.643167      146.59282      99952.817    
Loop time of 3.06888 on 40 procs for 2079 steps with 68 atoms

101.8% CPU use with 20 MPI tasks x 2 OpenMP threads

Minimization stats:
  Stopping criterion = max iterations with v.f negative
  Energy initial, next-to-last, final = 
      146.592749465848   146.592849082877    146.59281593869
  Force two-norm initial, final = 0.013564158 0.011997225
  Force max component initial, final = 0.0040985033 0.0040495848
  Final line search alpha, max atom move = 0 0
  Iterations, force evaluations = 2079 4104

MPI task timing breakdown:
Section |  min time  |  avg time  |  max time  |%varavg| %total
---------------------------------------------------------------
Pair    | 0.097012   | 0.47293    | 0.69439    |  29.6 | 15.41
Bond    | 0.0015711  | 0.1377     | 0.24131    |  26.3 |  4.49
Neigh   | 0          | 0          | 0          |   0.0 |  0.00
Comm    | 1.4057     | 1.9546     | 2.8097     |  34.0 | 63.69
Output  | 0          | 0          | 0          |   0.0 |  0.00
Modify  | 0.00090995 | 0.33573    | 0.54879    |  32.5 | 10.94
Other   |            | 0.1679     |            |       |  5.47

Nlocal:            3.4 ave           8 max           0 min
Histogram: 4 1 5 1 0 2 2 1 2 2
Nghost:          12031 ave       12343 max       11715 min
Histogram: 2 0 4 2 0 6 0 4 0 2
Neighs:         2155.6 ave        5105 max           0 min
Histogram: 4 1 5 1 0 2 2 1 2 2

Total # of neighbors = 43112
Ave neighs/atom = 634
Ave special neighs/atom = 4.9411765
Neighbor list builds = 0
Dangerous builds = 0
variable        AtomMinStep equal $(step)
variable        AtomMinStep equal 693220
variable        temppe     equal $(pe)
variable        temppe     equal 146.59281593869047811
variable        min_E      equal abs(${prev_E}-${temppe})
variable        min_E      equal abs(146.592749465848-${temppe})
variable        min_E      equal abs(146.592749465848-146.59281593869)
print           "${iter},${CellMinStep},${AtomMinStep},${AtomMinStep},$(pe),${min_E}" append p1_structure.min.csv screen no
if              "${min_E} < ${min_eval}" then "jump SELF break_min"
variable        prev_E     equal ${temppe}
variable        prev_E     equal 146.59281593869
next            iter
jump            SELF loop_min
min_style       cg
fix             1 all box/relax tri 100000 vmax 0.05
minimize        1.0e-15 1.0e-15 10000 100000
----------------------------------------------------------
Using INTEL Package without Coprocessor.
Compiler: Intel LLVM C++ 202202.0 / Intel(R) oneAPI DPC++/C++ Compiler 2022.2.1 (2022.2.1.20221020)
SIMD compiler directives: Enabled
Precision: mixed
----------------------------------------------------------
Generated 6 of 6 mixed pair_coeff terms from arithmetic mixing rule
Per MPI rank memory allocation (min/avg/max) = 17.21 | 17.79 | 18.16 Mbytes
   Step          Temp          E_pair         E_mol          TotEng         Press          Volume    
    693220   5.5118896e-12  123.94965      22.643167      146.59282      99952.817      684.6955     
    693221   5.5118896e-12  123.94965      22.643167      146.59282      99952.817      684.6955     
Loop time of 0.0557771 on 40 procs for 1 steps with 68 atoms

104.9% CPU use with 20 MPI tasks x 2 OpenMP threads

Minimization stats:
  Stopping criterion = linesearch alpha is zero
  Energy initial, next-to-last, final = 
       146.59281593869    146.59281593869    146.59281593869
  Force two-norm initial, final = 17.585539 17.585539
  Force max component initial, final = 14.754462 14.754462
  Final line search alpha, max atom move = 2.5248568e-11 3.7252903e-10
  Iterations, force evaluations = 1 51

MPI task timing breakdown:
Section |  min time  |  avg time  |  max time  |%varavg| %total
---------------------------------------------------------------
Pair    | 0.0010821  | 0.010187   | 0.015018   |   4.7 | 18.26
Bond    | 3.1022e-05 | 0.0028722  | 0.004755   |   3.6 |  5.15
Neigh   | 0.0012115  | 0.0013842  | 0.0015452  |   0.4 |  2.48
Comm    | 0.018894   | 0.027436   | 0.042692   |   5.0 | 49.19
Output  | 0          | 0          | 0          |   0.0 |  0.00
Modify  | 1.3508e-05 | 0.003372   | 0.0058585  |   3.6 |  6.05
Other   |            | 0.01053    |            |       | 18.87

Nlocal:            3.4 ave           8 max           0 min
Histogram: 4 1 5 1 0 2 2 1 2 2
Nghost:          12031 ave       12343 max       11715 min
Histogram: 2 0 4 2 0 6 0 4 0 2
Neighs:         2155.6 ave        5101 max           0 min
Histogram: 4 1 5 1 0 2 2 1 2 2

Total # of neighbors = 43112
Ave neighs/atom = 634
Ave special neighs/atom = 4.9411765
Neighbor list builds = 2
Dangerous builds = 1
unfix           1
min_style       fire
variable        tempstp    equal $(step)
variable        tempstp    equal 693221
variable        CellMinStep equal ${tempstp}
variable        CellMinStep equal 693221
minimize        1.0e-15 1.0e-15 10000 100000
----------------------------------------------------------
Using INTEL Package without Coprocessor.
Compiler: Intel LLVM C++ 202202.0 / Intel(R) oneAPI DPC++/C++ Compiler 2022.2.1 (2022.2.1.20221020)
SIMD compiler directives: Enabled
Precision: mixed
----------------------------------------------------------
Generated 6 of 6 mixed pair_coeff terms from arithmetic mixing rule
  Parameters for fire: 
    dmax delaystep dtgrow dtshrink alpha0 alphashrink tmax tmin    integrator halfstepback 
     0.1        20    1.1      0.5   0.25        0.99   10 0.02 eulerimplicit          yes 
Per MPI rank memory allocation (min/avg/max) = 16.08 | 16.66 | 17.04 Mbytes
   Step          Temp          E_pair         E_mol          TotEng         Press     
    693221   0              123.94965      22.643167      146.59282      99952.817    
    695273   7.23613e-12    123.94966      22.643161      146.59282      99952.714    
Loop time of 2.94689 on 40 procs for 2052 steps with 68 atoms

101.2% CPU use with 20 MPI tasks x 2 OpenMP threads

Minimization stats:
  Stopping criterion = max iterations with v.f negative
  Energy initial, next-to-last, final = 
       146.59281593869   146.592842213133   146.592816124353
  Force two-norm initial, final = 0.011997225 0.0097813138
  Force max component initial, final = 0.0040495848 0.0039488916
  Final line search alpha, max atom move = 0 0
  Iterations, force evaluations = 2052 4077

MPI task timing breakdown:
Section |  min time  |  avg time  |  max time  |%varavg| %total
---------------------------------------------------------------
Pair    | 0.098461   | 0.46009    | 0.66982    |  28.2 | 15.61
Bond    | 0.0014419  | 0.13905    | 0.2409     |  26.3 |  4.72
Neigh   | 0          | 0          | 0          |   0.0 |  0.00
Comm    | 1.399      | 1.8642     | 2.6746     |  32.4 | 63.26
Output  | 0          | 0          | 0          |   0.0 |  0.00
Modify  | 0.0008818  | 0.31779    | 0.51635    |  30.7 | 10.78
Other   |            | 0.1658     |            |       |  5.63

Nlocal:            3.4 ave           8 max           0 min
Histogram: 4 1 5 1 0 2 2 1 2 2
Nghost:          12031 ave       12343 max       11715 min
Histogram: 2 0 4 2 0 6 0 4 0 2
Neighs:         2155.6 ave        5105 max           0 min
Histogram: 4 1 5 1 0 2 2 1 2 2

Total # of neighbors = 43112
Ave neighs/atom = 634
Ave special neighs/atom = 4.9411765
Neighbor list builds = 0
Dangerous builds = 0
variable        AtomMinStep equal $(step)
variable        AtomMinStep equal 695273
variable        temppe     equal $(pe)
variable        temppe     equal 146.59281612435330544
variable        min_E      equal abs(${prev_E}-${temppe})
variable        min_E      equal abs(146.59281593869-${temppe})
variable        min_E      equal abs(146.59281593869-146.592816124353)
print           "${iter},${CellMinStep},${AtomMinStep},${AtomMinStep},$(pe),${min_E}" append p1_structure.min.csv screen no
if              "${min_E} < ${min_eval}" then "jump SELF break_min"
jump SELF break_min
undump   structure_xyzmov

print " "
 
print "----------------"
----------------
print "Cell Data"
Cell Data
print "----------------"
----------------
print " "
 

variable x0 equal xlo
variable x1 equal xhi
variable y0 equal ylo
variable y1 equal yhi
variable z0 equal zlo
variable z1 equal zhi
variable XY equal xy
variable XZ equal xz
variable YZ equal yz

print "x0 = ${x0}"
x0 = -0.972219913684772
print "x1 = ${x1}"
x1 = 7.63016791368478
print "y0 = ${y0}"
y0 = 1.9674576881894
print "y1 = ${y1}"
y1 = 4.8738593118106
print "z0 = ${z0}"
z0 = 2.38322614542306
print "z1 = ${z1}"
z1 = 29.7688618545769
print "XY = ${XY}"
XY = -9.9631053182641
print "XZ = ${XZ}"
XZ = -12.9030381291065
print "YZ = ${YZ}"
YZ = -8.22458862678905
Total wall time: 0:11:55
