68
 Atoms. Timestep: 0
C -0.376229 -6.6186 25.195
C -4.97017 -6.73203 26.4457
C -5.66515 -6.36914 25.2921
C -1.05012 -7.23107 26.2514
C -5.64433 -7.34429 27.5023
C -0.355313 -7.59374 27.4052
C -2.69276 -3.54723 13.9348
C -0.628753 -3.66066 15.1856
C -1.32374 -3.29777 14.0319
C -3.36665 -4.1597 14.9912
C -1.30291 -4.27292 16.2421
C -2.67185 -4.52237 16.1451
C 0.207787 3.78416 2.85219
C 2.2718 3.67073 4.10295
C 1.57681 4.03362 2.9493
C -0.466102 3.17169 3.9086
C 1.59763 3.05847 5.15951
C 0.228703 2.80902 5.06243
C 1.11099 -4.13462 19.3478
C -3.48294 -4.24805 20.5986
C -4.17793 -3.88516 19.4449
C 0.437106 -4.7471 20.4042
C -4.15711 -4.86032 21.6552
C 1.13191 -5.10977 21.5581
H -5.13035 -5.89233 24.4739
H -5.12605 -7.63735 28.4128
H -0.788931 -2.82096 13.2138
H -0.78464 -4.56597 17.1526
H 2.11162 4.51043 2.13116
H 2.11591 2.76541 6.07
H -3.64312 -3.40836 18.6268
H -3.63883 -5.15337 22.5656
N -1.03426 -6.22499 23.9893
N -3.57646 -6.47879 26.5447
N -0.980462 -8.20484 28.4807
N -1.47033 -8.68355 29.3238
N 3.30716 -3.15362 12.7292
N 0.764955 -3.40742 15.2845
N -3.297 -5.13347 17.2206
N -3.78686 -5.61218 18.0637
N -0.45024 4.17777 1.64653
N 3.6655 3.92397 4.20192
N -0.396446 2.19792 6.13795
N -0.886314 1.71921 6.98103
N 0.452968 -3.74101 18.1422
N -2.08924 -3.99481 20.6976
N 0.506762 -5.72087 22.6336
N 0.016894 -6.19958 23.4767
O -2.3122 -7.46501 26.1705
O -0.358978 -5.68138 23.0882
O -2.26146 -6.43894 23.8792
O -2.97044 -6.81387 27.591
O -2.98888 -5.92732 25.5828
O 2.02921 -4.39364 14.9104
O -2.67551 -2.61001 11.828
O 2.07995 -3.36757 12.619
O 1.37097 -3.7425 16.3309
O 1.35254 -2.85595 14.3227
O -1.72819 2.93775 3.82774
O 0.225037 4.72138 0.745383
O 4.9805 3.96382 1.53641
O -2.38642 3.58889 5.24824
O 4.25309 4.47543 3.24005
O -0.82498 -4.98103 20.3234
O 1.12824 -3.1974 17.241
O -0.774236 -3.95497 18.0321
O -1.48322 -4.3299 21.7439
O -1.50165 -3.44335 19.7357
68
 Atoms. Timestep: 353
C -7.65268 -3.29199 25.3782
C -14.0795 -3.28627 26.6088
C -14.8179 -3.0041 25.4767
C -8.30062 -3.74871 26.5194
C -14.7326 -3.81791 27.7069
C -7.58737 -4.03001 27.6777
C 0.770883 -0.916237 13.0437
C -5.6941 -1.10054 14.3285
C -6.38988 -0.714086 13.1805
C 0.0705325 -1.48134 14.1177
C -6.41388 -1.72686 15.3505
C 0.738536 -1.8725 15.2655
C -6.4363 3.26806 3.60192
C -4.37981 3.28462 4.92536
C -5.05155 3.46017 3.71071
C -7.14464 2.89949 4.76486
C -5.10769 2.94332 6.06688
C -6.49122 2.73815 5.98695
C -13.36 -1.18759 19.2463
C -11.2085 -1.33984 20.3549
C -11.9856 -1.01227 19.25
C -5.40606 -1.89183 20.292
C -11.8291 -1.96166 21.4255
C -13.1653 -2.3006 21.3644
H -14.3327 -2.48403 24.7109
H -14.1573 -4.06116 28.5743
H -5.83366 -0.242223 12.389
H -15.8623 0.855222 16.1767
H -4.48042 3.74982 2.84101
H -4.58884 2.79227 6.99856
H -11.5071 -0.630992 18.3735
H -11.215 -2.30601 22.2376
N -8.35643 -3.01973 24.163
N -12.65 -3.0785 26.6282
N -8.2636 -4.5127 28.8171
N -16.134 -4.78138 29.9462
N 0.107516 -0.550939 11.8091
N -4.2568 -1.00408 14.3373
N -9.92447 0.535133 16.2663
N -9.31838 -0.0837321 17.2738
N -7.09255 3.45825 2.31759
N -2.94312 3.37726 4.96656
N -7.24472 2.35182 7.1252
N -6.66029 2.16667 8.31607
N -14.1325 -0.699674 18.1407
N -9.81244 -1.2537 20.3056
N -5.18241 -3.13619 22.3224
N -4.38516 -3.65565 23.2712
O -9.61188 -3.74143 26.5664
O -7.77776 -2.3599 23.232
O -9.54869 -3.50269 23.9207
O -12.0063 -3.09219 27.759
O -11.9728 -2.94825 25.5352
O -10.7952 1.41102 14.0848
O 0.791932 -0.034363 10.8375
O -1.18158 -0.703844 11.6416
O -3.56711 -1.11072 15.4308
O -3.62103 -0.941356 13.1973
O 0.104249 2.72621 4.73437
O -6.40094 3.85546 1.29277
O 0.169149 3.2545 2.14829
O -10.8337 3.39016 6.09526
O -2.27543 3.35704 3.85365
O -6.67897 -2.15824 20.2777
O -13.5554 0.0387479 17.2688
O -6.88936 -0.769276 18.115
O -9.1274 -1.26177 21.4137
O -9.17866 -1.60243 19.245
68
 Atoms. Timestep: 10412
C -15.9303 -3.26629 25.9583
C -13.8514 -3.18474 27.2199
C -14.553 -3.06053 26.0182
C -16.6076 -3.55981 27.1477
C -14.545 -3.4897 28.3896
C -15.9225 -3.70394 28.3488
C -9.82218 1.00255 11.6751
C -7.74396 1.16659 12.924
C -8.4395 1.19146 11.7116
C -10.5074 0.828136 12.8787
C -8.45163 1.01102 14.1153
C -9.83251 0.819265 14.0895
C -7.27342 3.66153 4.51837
C 4.80128 0.987415 5.78226
C -5.89285 3.85474 4.57022
C -7.96448 3.48773 5.72248
C 4.08856 0.833117 6.97002
C 2.7072 0.644257 6.93775
C -3.71702 -1.83712 18.8272
C -10.1989 -1.73293 20.081
C -10.8991 -1.63224 18.8734
C -4.39344 -2.10101 20.02
C -10.8941 -2.01482 21.2559
C -12.272 -2.22604 21.2204
H -14.0299 -2.79159 25.1287
H -14.0018 -3.63333 29.3113
H -7.9022 1.32466 10.7918
H -16.486 0.993552 15.0531
H -5.35628 4.01343 3.66143
H -3.95058 0.815889 7.90926
H -10.3684 -1.40669 17.9677
H -10.3513 -2.13971 22.1802
N -8.05674 -3.12814 24.702
N -12.4299 -3.06309 27.2332
N -16.6314 -4.12279 29.4929
N -3.62557 3.79024 2.05871
N -1.95282 1.05164 10.4223
N -6.32004 1.26819 12.9369
N -10.5683 0.636513 15.274
N -9.95705 0.610132 16.4593
N -7.94992 3.70473 3.25013
N -2.33659 1.08681 5.79548
N 1.96427 0.471463 8.1202
N -5.99886 0.473863 9.31204
N -4.4182 -1.73139 17.5794
N -8.77773 -1.60876 20.1008
N -12.983 -2.61692 22.3718
N -12.3371 -2.89829 23.5042
O -9.34046 -3.61903 27.1667
O -16.0483 -2.51627 23.7096
O -9.22988 -3.65496 24.5135
O -20.3441 -3.055 28.3564
O -11.7636 -3.089 26.1212
O -11.8033 0.751823 12.8894
O -10.0242 1.74678 9.44621
O -3.04959 0.381623 10.2287
O -14.2284 1.23845 14.0556
O -5.65626 1.24233 11.826
O -9.25971 3.40676 5.73331
O -7.36076 4.23705 2.22461
O -0.566935 3.18431 3.08776
O -1.68202 1.04559 6.91401
O -11.674 3.89555 4.68361
O -5.68992 -2.15454 20.0372
O -3.91446 -1.02388 16.618
O -5.51926 -2.38965 17.3648
O -8.13041 -1.60159 21.226
O -8.10908 -1.62027 18.9917
68
 Atoms. Timestep: 20415
C -15.905 -3.51975 25.9094
C -13.8339 -3.3788 27.1842
C -14.5285 -3.29923 25.9775
C -16.589 -3.7624 27.1086
C -14.5331 -3.64423 28.3558
C -15.9037 -3.88504 28.3145
C -9.95649 1.54802 11.709
C 2.10823 -1.14865 12.9874
C -8.57839 1.74413 11.7699
C -10.6493 1.31816 12.8994
C 1.39944 -1.39462 14.1591
C -9.97521 1.20334 14.1104
C -7.25991 3.89613 4.54006
C -3.76566 1.33612 5.82009
C 4.12252 1.27132 4.60301
C 2.03432 0.999922 5.74935
C -4.49425 1.28143 7.00201
C 2.69147 1.08937 6.97004
C -3.63624 -2.31739 18.8022
C -10.1371 -2.16093 20.0868
C -10.8268 -2.08565 18.8772
C -4.32653 -2.54483 19.9999
C -10.839 -2.43344 21.2551
C -12.2112 -2.66786 21.2079
H -13.9948 -3.05265 25.0866
H -14.004 -3.71941 29.2889
H -8.03462 1.90381 10.8598
H -6.64202 -1.46251 15.0972
H -5.32774 4.20278 3.69641
H -3.98665 1.37466 7.94251
H -10.2902 -1.83485 17.9893
H -10.3104 -2.52066 22.1887
N -8.0053 -3.48465 24.63
N -12.411 -3.25543 27.2021
N -16.5959 -4.32957 29.4591
N -3.57499 3.5234 2.13757
N -10.6312 1.58438 10.4432
N -5.03619 -1.02323 13.0182
N -10.6772 0.769394 15.2521
N -10.0257 0.409804 16.3594
N -7.89547 3.7375 3.25539
N -2.33824 1.42813 5.84864
N 1.94277 0.998641 8.15857
N -6.02557 1.03784 9.34884
N -4.28928 -2.32348 17.5165
N -8.71531 -2.0306 20.1089
N -4.34573 -3.11222 22.3473
N -12.2569 -3.4828 23.4491
O -9.32003 -3.82676 27.127
O -7.33497 -3.18051 23.5653
O -9.24916 -3.83571 24.4893
O -20.3292 -3.24474 28.3219
O -11.7404 -3.30169 26.0969
O -11.9458 1.25979 12.8958
O -10.1669 2.4161 9.5157
O -3.0588 0.722301 10.2254
O -4.3989 -0.970323 14.1421
O -14.3623 1.75222 11.9204
O 0.740636 0.900842 5.75707
O -7.17475 3.72943 2.18056
O -0.606232 3.51892 3.13493
O -1.69261 1.37367 6.97078
O -1.66731 1.39196 4.74332
O -5.62264 -2.6027 20.0139
O -3.59123 -2.13174 16.4439
O -15.5481 0.202971 17.3799
O -8.07277 -2.00135 21.2313
O -8.04218 -2.07674 19.0048
68
 Atoms. Timestep: 30423
C -15.9139 -3.53955 25.8578
C -13.8415 -3.38447 27.1296
C -14.5377 -3.31135 25.9238
C -16.598 -3.77241 27.059
C -14.5399 -3.64847 28.3026
C -15.9105 -3.89166 28.2636
C -9.98108 1.63272 11.723
C 2.1025 -1.07106 13.005
C -8.60311 1.82975 11.7863
C -10.6768 1.39817 12.9103
C 1.39181 -1.32927 14.1737
C -10.0046 1.27304 14.1207
C -7.26554 3.92286 4.58519
C -3.76242 1.37406 5.86499
C 4.13844 1.29412 4.64786
C 2.04578 1.03688 5.79336
C -4.49518 1.33417 7.04566
C 2.70031 1.14081 7.01319
C -3.67285 -2.39724 18.7978
C -10.1785 -2.26001 20.0764
C -10.8721 -2.17041 18.8698
C -4.35864 -2.64997 19.9931
C -10.8774 -2.54689 21.2437
C -3.67362 -2.78852 21.1968
H -14.005 -3.06411 25.0325
H -14.0098 -3.71995 29.235
H -8.05765 1.9906 10.8772
H -6.65943 -1.41086 15.1105
H -5.32994 4.21379 3.74154
H -3.99051 1.44361 7.98498
H -10.3382 -1.90796 17.9833
H -10.3463 -2.6428 22.1751
N -8.00142 -3.5312 24.5772
N -12.4182 -3.25847 27.1455
N -16.599 -4.3413 29.4082
N -3.56211 3.50491 2.21201
N -10.6536 1.66635 10.4569
N -5.05207 -0.941632 13.0388
N -10.7081 0.821907 15.2545
N -10.0562 0.44202 16.3552
N -7.89703 3.74589 3.30182
N -2.33423 1.46587 5.89547
N -6.62669 1.06438 8.20087
N -6.03102 1.11566 9.39092
N -4.33505 -2.36244 17.5178
N -8.75626 -2.13074 20.0963
N -4.36519 -3.26138 22.3296
N -12.2781 -3.64723 23.4224
O -9.32005 -3.83416 27.0797
O -7.31688 -3.29224 23.5045
O -9.25125 -3.86284 24.443
O -20.345 -3.25148 28.2645
O -11.7462 -3.29935 26.0394
O -11.9744 1.34253 12.9041
O -10.2003 2.50905 9.53353
O -3.054 0.787885 10.234
O -4.41695 -0.88128 14.1636
O -14.3951 1.84084 11.9421
O 0.751251 0.936835 5.80049
O -7.17013 3.71274 2.23008
O -0.59891 3.53481 3.18047
O -1.68938 1.40892 7.01847
O -1.66003 1.42916 4.79069
O -5.65576 -2.70956 20.0104
O -3.65566 -2.07657 16.4534
O -15.6051 0.134744 17.3746
O -8.11276 -2.10691 21.2178
O -8.0812 -2.17917 18.9921
68
 Atoms. Timestep: 40426
C -15.9089 -3.57192 25.8233
C -13.8333 -3.41972 27.0917
C -14.5324 -3.34395 25.8869
C -16.5901 -3.80733 27.0261
C -14.5288 -3.68767 28.2659
C -15.8992 -3.93156 28.2293
C -9.98899 1.70543 11.7309
C -6.48337 -1.00125 13.0168
C -8.61157 1.90102 11.7958
C -10.6863 1.47116 12.9172
C -7.19466 -1.26582 14.1841
C 0.0107119 -1.50356 14.1284
C -7.25369 3.90077 4.6178
C -3.75296 1.36624 5.89882
C 4.15221 1.26851 4.68078
C 2.05743 1.031 5.82551
C -4.48766 1.34494 7.07819
C 2.71041 1.15237 7.04542
C -3.691 -2.40827 18.7913
C -10.1956 -2.28651 20.0672
C -10.8917 -2.18549 18.8619
C -4.37316 -2.67757 19.9854
C -10.8917 -2.58538 21.2337
C -3.68501 -2.82934 21.1867
H -14.0019 -3.09463 24.9945
H -13.997 -3.76222 29.1976
H -8.06593 2.05793 10.8859
H -6.67123 -1.35614 15.1211
H -5.31591 4.16882 3.77429
H -3.98536 1.47306 8.01667
H -10.3603 -1.91495 17.9759
H -10.3587 -2.69131 22.164
N -7.99648 -3.56291 24.543
N -12.4101 -3.29325 27.1055
N -16.583 -4.39108 29.3735
N -3.54022 3.44416 2.26866
N -10.6597 1.73164 10.4636
N -5.06386 -0.868746 13.0539
N -10.72 0.877627 15.2579
N -10.0694 0.480124 16.353
N -7.88302 3.70727 3.33478
N -2.32505 1.45758 5.93247
N -6.62 1.09808 8.23303
N -6.02639 1.17762 9.42321
N -4.35845 -2.34826 17.5141
N -8.77361 -2.15769 20.0864
N -4.37167 -3.32262 22.3145
N -3.70608 -3.72529 23.3989
O -9.30948 -3.86783 27.0496
O -7.312 -3.33286 23.4686
O -9.24836 -3.88905 24.4107
O -20.337 -3.29271 28.2239
O -11.7406 -3.32716 25.9983
O -11.9836 1.41833 12.9083
O -10.2193 2.58389 9.54201
O -3.04048 0.833269 10.2375
O -4.43079 -0.800267 14.1801
O -14.4076 1.91703 11.9586
O 0.763095 0.931456 5.83162
O -7.15478 3.65512 2.26565
O -0.583403 3.50229 3.21259
O -1.68204 1.40172 7.05761
O -1.65043 1.41972 4.82865
O -5.66988 -2.73753 20.0047
O -3.68971 -2.01671 16.4562
O -15.6273 0.140152 17.3669
O -8.12946 -2.13746 21.208
O -8.09986 -2.20505 18.9821
68
 Atoms. Timestep: 50437
C -15.9469 -3.60213 25.7951
C -13.8709 -3.45076 27.0595
C -14.5711 -3.37298 25.8557
C -16.6281 -3.84184 26.9983
C -14.5665 -3.72261 28.2352
C -15.9359 -3.96896 28.1998
C -10.0283 1.76503 11.7379
C -6.50947 -0.947416 13.0259
C -8.65195 1.96116 11.8029
C -10.7295 1.5314 12.9233
C -7.22374 -1.2167 14.1928
C -0.00864352 -1.4541 14.1345
C -7.27132 3.88137 4.64729
C -3.75851 1.35505 5.92806
C 4.16048 1.24105 4.70941
C 2.06037 1.01753 5.85393
C -4.49949 1.34941 7.10656
C 2.70829 1.15571 7.07314
C -3.72581 -2.41475 18.7851
C -10.2393 -2.30219 20.0584
C -10.936 -2.19317 18.8539
C -4.40758 -2.69789 19.9774
C -10.9355 -2.61111 21.2245
C -3.71838 -2.85851 21.1765
H -14.041 -3.12029 24.963
H -14.0343 -3.79865 29.1658
H -8.10369 2.11525 10.8928
H -6.70126 -1.3127 15.1295
H -5.32918 4.1327 3.80342
H -4.00204 1.49462 8.04364
H -10.4051 -1.91514 17.9688
H -10.4019 -2.72426 22.1534
N -8.02563 -3.59028 24.5154
N -12.4482 -3.32381 27.071
N -16.6165 -4.43791 29.3432
N -3.5357 3.39251 2.31854
N -10.6955 1.78357 10.4696
N -5.09123 -0.811939 13.0651
N -10.7671 0.926334 15.2608
N -10.1156 0.518414 16.3533
N -7.89487 3.67315 3.36454
N -2.33109 1.44659 5.96352
N -6.63694 1.12041 8.25945
N -6.04804 1.23097 9.45108
N -4.39543 -2.33609 17.5106
N -8.81803 -2.17329 20.0765
N -4.40165 -3.36885 22.2996
N -3.73144 -3.78193 23.3792
O -9.33856 -3.90272 27.0241
O -7.34059 -3.35486 23.4398
O -9.27518 -3.91929 24.3833
O -20.3836 -3.32897 28.1906
O -11.7756 -3.35406 25.962
O -12.027 1.47984 12.9128
O -10.4966 2.64216 9.5472
O -3.04943 0.870433 10.2431
O -4.46166 -0.736218 14.1945
O -4.40259 -0.868243 11.9703
O 0.766008 0.9169 5.85953
O 1.42579 3.60823 2.29681
O -0.585084 3.47043 3.24167
O -1.69049 1.39273 7.09227
O -1.65084 1.40519 4.85957
O -5.70443 -2.75938 19.9982
O -3.73344 -1.9674 16.4581
O -15.6864 0.15238 17.3597
O -8.17493 -2.15499 21.2004
O -8.13984 -2.22239 18.9715
68
 Atoms. Timestep: 60440
C -15.9513 -3.6472 25.7717
C -13.8701 -3.50069 27.0325
C -14.574 -3.42059 25.8305
C -16.6286 -3.88776 26.9762
C -14.562 -3.77397 28.2082
C -15.9323 -4.01874 28.176
C -10.0276 1.85211 11.7404
C -6.51087 -0.863642 13.0329
C 1.40196 -0.803892 11.8083
C -10.73 1.62235 12.9242
C -7.22583 -1.13559 14.1971
C -0.0110667 -1.36686 14.1364
C -7.26322 3.85185 4.67174
C -3.75197 1.34342 5.95327
C -5.88289 4.05846 4.73536
C 2.06807 1.00731 5.87678
C -4.49333 1.35934 7.12831
C 2.71562 1.16712 7.09489
C -3.7516 -2.43069 18.7807
C -10.2616 -2.33835 20.0514
C -2.37323 -2.2183 18.8489
C -4.42951 -2.7298 19.9707
C -10.955 -2.6553 21.2155
C -3.73708 -2.90256 21.1674
H -14.0464 -3.1687 24.9369
H -14.0273 -3.85226 29.1376
H -8.10292 2.19729 10.8981
H -6.70353 -1.23922 15.1336
H -5.31916 4.07775 3.83076
H -3.99711 1.52495 8.06304
H -10.4318 -1.93834 17.9639
H -10.4196 -2.77722 22.143
N -8.03273 -3.63332 24.4934
N -12.4464 -3.37418 27.0426
N -16.609 -4.49082 29.3198
N -3.52383 3.33186 2.36086
N -10.6937 1.85957 10.4716
N -5.09199 -0.727185 13.0765
N -0.720966 -1.83396 15.2601
N -10.1271 0.596799 16.3493
N -7.88634 3.62509 3.39125
N -2.32404 1.43464 5.99277
N -6.63135 1.16086 8.27973
N -6.04652 1.3189 9.46681
N -4.42735 -2.32159 17.511
N -8.8393 -2.21196 20.0699
N -4.41734 -3.42557 22.286
N -3.74579 -3.85205 23.358
O -9.33794 -3.9473 27.0044
O -7.34988 -3.40462 23.4175
O -9.28571 -3.95594 24.3636
O -20.3805 -3.38476 28.1592
O -11.7785 -3.39668 25.9336
O -12.0278 1.5726 12.9098
O -0.224638 -0.1263 9.5497
O -3.03084 0.927992 10.2445
O -4.46338 -0.644515 14.2051
O -4.40491 -0.781742 11.984
O 0.773275 0.907863 5.88057
O 1.43521 3.54058 2.3276
O -0.577052 3.42954 3.26707
O -1.6851 1.38958 7.12187
O -1.64501 1.38713 4.89154
O -5.72652 -2.79367 19.9925
O -3.77678 -1.90795 16.4699
O -15.7211 0.17324 17.3573
O -8.19495 -2.19549 21.1916
O -8.16447 -2.26162 18.9661
68
 Atoms. Timestep: 70469
C -7.43961 -3.67842 25.726
C -13.9573 -3.53324 26.982
C -14.6618 -3.45153 25.7816
C -16.7176 -3.92191 26.9298
C -14.6506 -3.809 28.1586
C -16.0211 -4.05472 28.1273
C -10.0782 1.91198 11.7532
C -6.55306 -0.80977 13.0469
C 1.37486 -0.750925 11.8207
C -0.709159 -1.17214 12.9344
C -7.27257 -1.08406 14.2102
C -0.0471119 -1.31193 14.1466
C -7.28484 3.8351 4.72064
C -3.76592 1.33494 6.001
C -5.90491 4.04069 4.78372
C 2.0645 0.995449 5.92251
C -4.51384 1.36522 7.17408
C 2.70656 1.17209 7.13876
C -3.82053 -2.44385 18.7676
C -10.3422 -2.36327 20.035
C -2.4419 -2.23552 18.8338
C -4.49973 -2.75618 19.9541
C -11.0375 -2.68754 21.1983
C -3.80784 -2.93666 21.1481
H -14.1326 -3.19739 24.8884
H -14.1165 -3.88745 29.0875
H -8.15051 2.25538 10.9112
H -6.75237 -1.19226 15.1472
H -5.33523 4.04508 3.88115
H -4.02313 1.54763 8.10703
H -10.5101 -1.95125 17.9501
H -10.5028 -2.81512 22.1253
N -8.10765 -3.66309 24.4488
N -12.5331 -3.4065 26.9905
N -16.6969 -4.53338 29.2693
N -3.5219 3.28457 2.43873
N -10.7392 1.91038 10.4842
N -5.13418 -0.67192 13.0937
N -0.762283 -1.7795 15.2667
N -10.1961 0.649914 16.3552
N -7.90134 3.59425 3.44159
N -2.33759 1.42662 6.04267
N -6.65892 1.18486 8.31946
N -6.08262 1.37994 9.50628
N -4.49662 -2.31426 17.5014
N -8.91957 -2.23806 20.0537
N -4.4878 -3.47268 22.2609
N -3.81475 -3.91016 23.3286
O -9.41567 -3.98239 26.9595
O -7.42334 -3.43271 23.373
O -9.35928 -3.98789 24.3193
O -20.4792 -3.42172 28.1091
O -11.8637 -3.42504 25.8797
O -12.0843 1.63513 12.9167
O -0.255114 -0.0778759 9.56173
O -3.05057 0.966118 10.2588
O -4.50929 -0.583933 14.2259
O -4.44296 -0.725656 12.0016
O 0.769237 0.895154 5.92466
O 1.43698 3.49757 2.38134
O -0.579421 3.40025 3.31592
O -1.7021 1.38576 7.17625
O -1.65481 1.37415 4.94113
O -5.79698 -2.82396 19.9761
O -3.85043 -1.87022 16.4688
O -15.8157 0.194747 17.346
O -8.27744 -2.22151 21.1783
O -8.24166 -2.2922 18.9497
68
 Atoms. Timestep: 80471
C -7.44238 -3.7573 25.7129
C -13.9549 -3.61239 26.9634
C -14.6649 -3.5319 25.765
C -8.11476 -3.99975 26.9202
C -14.6423 -3.88697 28.1418
C -16.0128 -4.13364 28.116
C 0.0156866 -0.807498 11.7482
C -6.5404 -0.667222 13.0509
C 1.39237 -0.615267 11.8207
C -0.696405 -1.01809 12.9287
C -7.26401 -0.93185 14.2122
C -0.0392504 -1.14791 14.1455
C -7.26358 3.79113 4.74028
C -3.74942 1.32214 6.01956
C -5.88265 3.99521 4.80445
C 2.0836 0.978431 5.94115
C -4.49781 1.38344 7.18801
C 2.72524 1.18866 7.15498
C -3.85695 -2.48129 18.7629
C -10.3757 -2.43897 20.0302
C -2.4752 -2.29404 18.8307
C -4.53238 -2.82571 19.9436
C -11.0694 -2.7718 21.19
C -3.83752 -3.02352 21.1363
H -14.1406 -3.28164 24.8692
H -14.1041 -3.9647 29.0686
H 1.94381 -0.479072 10.91
H -6.7459 -1.04167 15.1502
H -5.31261 3.96681 3.90443
H -4.00867 1.59609 8.11585
H -1.94506 -2.01389 17.9468
H -10.533 -2.91128 22.115
N -8.11668 -3.74344 24.4371
N -12.5303 -3.48577 26.9683
N -16.6808 -4.61516 29.2613
N -3.4967 3.20169 2.47359
N -10.7168 2.02431 10.4769
N -5.12086 -0.530582 13.1028
N -0.76494 -1.58626 15.27
N -0.132013 -2.00258 16.3675
N -7.87949 3.52276 3.46426
N -2.32158 1.41501 6.06509
N -6.64106 1.24151 8.33453
N -6.06969 1.51405 9.5082
N -4.53801 -2.29195 17.5043
N -8.95234 -2.32291 20.0479
N -4.5137 -3.57846 22.2425
N -3.83877 -4.02379 23.3053
O -9.41242 -4.06007 26.9542
O -7.4342 -3.52855 23.3582
O -9.37317 -4.05519 24.3122
O -11.8719 -3.50967 28.0824
O -11.8654 -3.49474 25.8568
O -1.99457 -1.06934 12.9041
O -0.255054 0.0397698 9.55049
O -2.99785 1.05108 10.2538
O -4.4946 -0.442611 14.2337
O -4.43049 -0.579629 12.0123
O 0.788144 0.878448 5.9422
O 1.46133 3.40331 2.40777
O -0.557755 3.33736 3.3371
O -1.68752 1.39063 7.19858
O -1.63735 1.34869 4.96791
O -5.82903 -2.90882 19.9628
O -3.89527 -1.80343 16.4897
O -15.8748 0.291649 17.3554
O -8.30744 -2.3064 21.1693
O -8.27716 -2.39158 18.9453
68
 Atoms. Timestep: 90485
C -7.49649 -3.78361 25.6882
C -14.0083 -3.63775 26.9348
C -14.7174 -3.55749 25.7379
C -8.16939 -4.02755 26.8952
C -14.696 -3.9133 28.1144
C -16.0655 -4.16148 28.0896
C -0.00550681 -0.769696 11.7553
C -6.56375 -0.624951 13.0585
C 1.36962 -0.577563 11.8274
C -0.721532 -0.973048 12.9348
C -7.29088 -0.884609 14.2204
C -0.0692512 -1.09648 14.1527
C -7.25448 3.78051 4.76864
C -3.75119 1.31647 6.04552
C -5.87506 3.98416 4.83205
C 2.08104 0.969181 5.96789
C -4.50216 1.38736 7.21302
C 2.7189 1.19143 7.17998
C -3.90719 -2.49485 18.7543
C -10.4266 -2.46589 20.02
C -2.52643 -2.31461 18.8219
C -4.58453 -2.8523 19.9308
C -11.1224 -2.80264 21.179
C -3.8925 -3.05616 21.1224
H -14.192 -3.3064 24.8421
H -14.1589 -3.98965 29.0406
H 1.92389 -0.44628 10.9167
H -6.77596 -0.992468 15.1592
H -5.30182 3.94547 3.93365
H -4.01657 1.61083 8.13888
H -1.99357 -2.03505 17.939
H -10.5882 -2.94583 22.1037
N -8.16862 -3.77035 24.4127
N -12.5839 -3.51068 26.938
N -16.7328 -4.64616 29.2339
N -3.48048 3.17021 2.51739
N -10.7236 2.06046 10.4843
N -5.14427 -0.488569 13.1115
N -0.800651 -1.52147 15.2782
N -0.173396 -1.92898 16.3824
N -7.86573 3.50246 3.49372
N -2.32383 1.41027 6.09178
N -6.64701 1.25653 8.357
N -6.08122 1.55534 9.52785
N -4.58473 -2.28474 17.4983
N -9.00339 -2.35335 20.0369
N -4.56984 -3.61951 22.2236
N -3.897 -4.06962 23.2862
O -9.46615 -4.08972 26.9306
O -7.48566 -3.55815 23.334
O -9.42434 -4.08135 24.289
O -11.9268 -3.53783 28.0533
O -11.9192 -3.51686 25.8256
O -2.01873 -1.02636 12.9079
O -0.275596 0.0684695 9.55551
O -2.9991 1.07946 10.2631
O -4.52022 -0.401723 14.2446
O -4.45311 -0.534908 12.0209
O -9.28006 3.73263 5.96858
O 1.47371 3.37547 2.43958
O -0.545859 3.31911 3.36623
O -1.69329 1.3904 7.22806
O -1.6381 1.34003 4.99497
O -5.87982 -2.94423 19.9476
O -3.93924 -1.78605 16.4903
O -15.9185 0.338495 17.3537
O -8.36068 -2.3353 21.1598
O -8.32794 -2.43034 18.9344
68
 Atoms. Timestep: 100000
C -7.49795 -3.82396 25.6879
C -14.0058 -3.67862 26.9348
C -14.718 -3.59781 25.7367
C -8.1675 -4.06951 26.8979
C -14.6905 -3.95539 28.116
C -16.0599 -4.20435 28.0933
C -0.00322102 -0.710303 11.7524
C -6.56056 -0.561589 13.0599
C 1.3726 -0.520108 11.8258
C -0.720274 -0.903521 12.9342
C -7.28868 -0.812503 14.2236
C -0.0686183 -1.01745 14.1561
C -7.25038 3.75592 4.77029
C -3.74724 1.30977 6.04673
C -5.87029 3.95991 4.83335
C 2.08504 0.957751 5.97074
C -4.49862 1.39561 7.21329
C 2.72291 1.19741 7.1823
C -3.91683 -2.50063 18.7508
C -10.4333 -2.49425 20.0187
C -2.53446 -2.33233 18.8201
C -4.5922 -2.87728 19.9239
C -11.1281 -2.837 21.1766
C -3.89843 -3.09115 21.117
H -14.1956 -3.34748 24.8384
H -14.151 -4.03183 29.0425
H 1.92538 -0.397626 10.9124
H -6.77358 -0.91735 15.1644
H -5.29711 3.90487 3.93509
H -4.01363 1.63475 8.13709
H -2.00234 -2.05562 17.9362
H -10.5921 -2.98851 22.1012
N -8.17395 -3.81016 24.4119
N -12.5816 -3.55112 26.9367
N -16.7234 -4.69022 29.241
N -3.46699 3.12686 2.52329
N -10.7212 2.10762 10.4785
N -5.14106 -0.425331 13.1135
N -0.804451 -1.41848 15.2891
N -0.180709 -1.80698 16.4029
N -7.86162 3.46269 3.49649
N -2.32039 1.40404 6.09407
N -6.64246 1.27884 8.36084
N -6.07795 1.60533 9.52549
N -4.59603 -2.26094 17.4974
N -9.0099 -2.38783 20.0339
N -4.57418 -3.66458 22.2156
N -3.9003 -4.11761 23.2775
O -9.46474 -4.13239 26.9347
O -7.49206 -3.5992 23.3304
O -9.43027 -4.11995 24.2887
O -11.9213 -3.58101 28.0508
O -11.9183 -3.55246 25.8222
O -2.01801 -0.957676 12.9048
O -0.280654 0.114893 9.54503
O -2.98383 1.1163 10.2607
O -4.51401 -0.339779 14.2458
O -4.45131 -0.464305 12.0205
O -9.27627 3.71882 5.97178
O 1.47917 3.32269 2.44261
O -0.542866 3.28488 3.36798
O -1.68929 1.39155 7.23079
O -1.63369 1.32721 4.99731
O -5.88705 -2.9814 19.936
O -3.94594 -1.75538 16.494
O -15.9397 0.414657 17.3609
O -8.36422 -2.36563 21.1556
O -8.33636 -2.47486 18.9295
68
 Atoms. Timestep: 100491
C -7.51679 -3.82499 25.6737
C -14.0286 -3.67834 26.9187
C -14.7403 -3.59823 25.7222
C -8.18746 -4.07027 26.8819
C -14.7146 -3.95498 28.0982
C -16.0841 -4.20454 28.0755
C -0.0100366 -0.713688 11.7588
C -6.57149 -0.563533 13.0644
C 1.36598 -0.522917 11.8319
C -0.728283 -0.90644 12.9389
C -7.30083 -0.814242 14.2264
C -0.0772593 -1.0197 14.159
C -7.2592 3.75871 4.78707
C -3.75287 1.30717 6.0616
C -5.87889 3.96322 4.84992
C 2.0823 0.954173 5.98577
C -4.50587 1.39414 7.22653
C 2.71914 1.19541 7.19546
C -3.92947 -2.50335 18.7468
C -10.4498 -2.49601 20.0129
C -2.54687 -2.33457 18.8159
C -4.6058 -2.88011 19.9182
C -11.1457 -2.83885 21.1691
C -3.91252 -3.09363 21.1095
H -14.2171 -3.34789 24.8254
H -14.1754 -4.03089 29.0234
H 1.91975 -0.400806 10.9199
H -6.78612 -0.918613 15.1659
H -5.30453 3.90736 3.953
H -4.0217 1.63464 8.14891
H -2.01398 -2.0578 17.9333
H -10.61 -2.99003 22.0924
N -8.19226 -3.81216 24.3995
N -12.6043 -3.55051 26.9207
N -16.7484 -4.69079 29.2214
N -3.47142 3.12615 2.54361
N -10.7349 2.11037 10.4867
N -5.15187 -0.426907 13.1179
N -0.81403 -1.42087 15.2902
N -8.79239 -1.80959 16.4027
N -7.86948 3.4637 3.51522
N -2.32586 1.40173 6.1089
N -6.65145 1.27799 8.37239
N -6.08809 1.60633 9.53535
N -4.60833 -2.264 17.4952
N -9.02627 -2.38931 20.0281
N -4.58892 -3.6677 22.2065
N -3.91507 -4.12127 23.267
O -9.48513 -4.13332 26.9187
O -7.50906 -3.60129 23.3194
O -9.44814 -4.12279 24.2765
O -11.9444 -3.57963 28.0333
O -11.9394 -3.5527 25.8074
O -2.02638 -0.960798 12.9096
O -0.286752 0.111848 9.55462
O -2.99236 1.11698 10.2693
O -4.52544 -0.340258 14.2487
O -4.46049 -0.466807 12.0262
O -9.28692 3.72242 5.98682
O 1.47675 3.32247 2.46257
O -0.546856 3.28536 3.38684
O -1.69524 1.39008 7.24414
O -1.63746 1.32384 5.01345
O -5.90098 -2.98452 19.9303
O -3.95749 -1.7578 16.4933
O -5.8853 -2.45379 17.359
O -8.3811 -2.36617 21.1482
O -8.35102 -2.47744 18.925
68
 Atoms. Timestep: 110524
C -7.60846 -3.84859 25.6434
C -14.1241 -3.70708 26.8888
C -14.8355 -3.62384 25.6919
C -8.27951 -4.09595 26.8515
C -14.8102 -3.98619 28.0685
C -16.1804 -4.23338 28.0453
C -0.0453545 -0.684434 11.7671
C -6.61327 -0.535402 13.0762
C 1.33078 -0.496196 11.8418
C -0.766588 -0.872455 12.9466
C -7.34491 -0.783385 14.2385
C -0.118441 -0.982883 14.169
C -7.26545 3.74444 4.81806
C -3.76882 1.30049 6.09274
C -5.88492 3.94762 4.88151
C 2.07086 0.945659 6.01494
C -4.52391 1.39762 7.25574
C 2.70538 1.19859 7.22383
C -3.9992 -2.5047 18.7349
C -10.5247 -2.51229 20.0027
C -2.61594 -2.34279 18.8057
C -4.67708 -2.89126 19.9028
C -11.2219 -2.86041 21.1577
C -3.98536 -3.1126 21.0945
H -14.3126 -3.37353 24.794
H -14.2727 -4.06337 28.9941
H 1.88406 -0.377046 10.9285
H -6.83276 -0.887944 15.1797
H -5.30961 3.88021 3.98549
H -4.04313 1.64913 8.17625
H -2.08198 -2.06561 17.9232
H -10.6883 -3.01752 22.0817
N -8.28345 -3.83406 24.3686
N -12.7001 -3.57861 26.89
N -16.8469 -4.72023 29.1906
N -3.46282 3.09328 2.5933
N -10.7644 2.13687 10.4942
N -5.19416 -0.398307 13.1305
N -0.861346 -1.37281 15.3006
N -8.85059 -1.75913 16.4178
N -7.87322 3.43864 3.5474
N -2.34249 1.39554 6.14131
N -6.6723 1.29187 8.39825
N -6.11315 1.6368 9.55925
N -4.67594 -2.25056 17.4844
N -9.10167 -2.40787 20.0172
N -4.66587 -3.69168 22.1869
N -3.99669 -4.15708 23.2453
O -9.57721 -4.1616 26.8873
O -7.59867 -3.62566 23.2889
O -9.53944 -4.14467 24.245
O -12.0391 -3.60823 28.0017
O -12.0357 -3.57368 25.7769
O -2.06477 -0.928795 12.9133
O -0.322658 0.134646 9.56062
O -3.00986 1.13679 10.2793
O -4.56753 -0.308106 14.2608
O -4.50268 -0.430894 12.0392
O -9.29535 3.71445 6.01453
O 1.47883 3.28578 2.49799
O -0.546372 3.26254 3.4184
O -1.71289 1.38962 7.27704
O -1.65288 1.31538 5.04721
O -5.97186 -3.00304 19.9101
O -4.02068 -1.74074 16.4869
O -5.95634 -2.41675 17.3507
O -8.45592 -2.37885 21.1364
O -8.42672 -2.50013 18.9148
68
 Atoms. Timestep: 120529
C -7.62001 -3.88653 25.6333
C -14.1328 -3.74585 26.8745
C -14.8468 -3.6617 25.6794
C -8.28852 -4.13842 26.8412
C -14.8172 -4.02743 28.0539
C -16.1872 -4.27693 28.033
C -0.0486848 -0.648135 11.7711
C -6.61729 -0.490561 13.0795
C 1.32705 -0.460008 11.8454
C -0.771531 -0.825437 12.9499
C -7.35025 -0.731435 14.2418
C -0.124571 -0.92762 14.1731
C -7.26191 3.71561 4.83515
C -3.77003 1.28585 6.10544
C -5.88155 3.92014 4.8975
C 2.07018 0.924504 6.03062
C -4.52515 1.39586 7.26603
C 2.70491 1.19296 7.2364
C -4.00994 -2.49102 18.7288
C -10.5346 -2.51145 19.9938
C -2.62641 -2.33503 18.7991
C -4.68717 -2.89183 19.8918
C -11.2314 -2.86702 21.146
C -3.99484 -3.12115 21.0814
H -14.3245 -3.41028 24.7815
H -14.2771 -4.10524 28.9776
H 1.88181 -0.350649 10.9324
H -6.8379 -0.831866 15.1828
H -5.30447 3.83855 4.00429
H -4.04396 1.66234 8.1828
H -2.09142 -2.05841 17.9177
H -10.6954 -3.03231 22.0668
N -8.29931 -3.86387 24.3616
N -12.7081 -3.61671 26.8754
N -16.8506 -4.76583 29.1787
N -3.45011 3.0513 2.61442
N -10.7616 2.16557 10.4985
N -5.19759 -0.350708 13.1342
N -0.870336 -1.3003 15.3081
N -8.86293 -1.67198 16.4313
N -7.86901 3.39485 3.56795
N -2.34351 1.38228 6.15513
N -6.67095 1.29861 8.41016
N -6.1108 1.66308 9.56477
N -4.68713 -2.21883 17.4829
N -9.11078 -2.40944 20.0076
N -4.67384 -3.71034 22.1693
N -4.00402 -4.17783 23.2259
O -9.58629 -4.20339 26.8796
O -7.62187 -3.62824 23.2837
O -9.55246 -4.18674 24.2373
O -12.0458 -3.65059 27.9867
O -12.0451 -3.61005 25.762
O -2.06977 -0.879557 12.9153
O -0.32964 0.159038 9.56266
O -2.99669 1.15506 10.2845
O -4.57064 -0.254201 14.2643
O -4.50725 -0.380452 12.0426
O -9.29212 3.69711 6.03049
O 1.48321 3.23404 2.52053
O -0.542097 3.22003 3.43816
O -1.71511 1.38363 7.29167
O -1.6535 1.2925 5.06279
O -5.9815 -3.01026 19.8966
O -4.02952 -1.70455 16.4894
O -5.97164 -2.3553 17.3559
O -8.46461 -2.37249 21.1267
O -8.43725 -2.51087 18.9054
68
 Atoms. Timestep: 130533
C -7.63109 -3.90166 25.6235
C -14.1418 -3.76319 26.8631
C -14.8568 -3.67651 25.6687
C -8.29857 -4.15772 26.8312
C -14.8255 -4.04783 28.0425
C -16.1954 -4.29814 28.0222
C -0.0548631 -0.63163 11.7745
C -6.62269 -0.471757 13.0828
C 1.32084 -0.443704 11.8484
C -0.778316 -0.805588 12.9535
C -7.35612 -0.710544 14.2456
C -8.73726 -0.9048 14.1772
C -7.25419 3.70385 4.84762
C -3.77026 1.27953 6.11576
C -5.87382 3.90826 4.90926
C 2.0692 0.915583 6.04253
C -4.52555 1.39652 7.27544
C 2.70374 1.19264 7.24676
C -4.02258 -2.48554 18.7247
C -10.5463 -2.51275 19.9891
C -2.63898 -2.332 18.7951
C -4.69987 -2.89362 19.8855
C -11.2432 -2.87294 21.1401
C -4.00764 -3.12752 21.0744
H -14.3352 -3.42244 24.7709
H -14.2848 -4.12668 28.9656
H 1.87549 -0.336604 10.935
H -6.84402 -0.809562 15.1868
H -5.29632 3.81907 4.01705
H -4.04471 1.67029 8.19041
H -2.10364 -2.05423 17.9142
H -10.7069 -3.04236 22.0601
N -8.31187 -3.87456 24.3525
N -12.7172 -3.63367 26.8634
N -16.8579 -4.78933 29.1678
N -3.43911 3.02723 2.63249
N -10.7587 2.18148 10.5018
N -5.20309 -0.330651 13.1375
N -0.879166 -1.27057 15.3137
N -8.87244 -1.63636 16.4397
N 0.744407 3.37595 3.58195
N -2.34401 1.37643 6.1656
N -6.671 1.30567 8.41993
N -6.11108 1.68046 9.57166
N -4.6994 -2.20551 17.4802
N -9.12273 -2.41159 20.0025
N -4.68683 -3.72192 22.1598
N -4.01746 -4.19285 23.2151
O -9.59624 -4.22394 26.8704
O -7.63685 -3.62713 23.2755
O -9.56335 -4.20371 24.2274
O -12.0541 -3.67021 27.9742
O -12.0548 -3.62399 25.7494
O -2.07653 -0.859877 12.9185
O -0.335694 0.170312 9.56436