68
 Atoms. Timestep: 0
C -0.363945 1.82053 4.18073
C -1.96395 1.96253 2.37594
C -1.074 1.21288 3.14512
C -0.543731 3.17775 4.44696
C -2.14387 3.31982 2.64253
C -1.43388 3.92745 3.67806
C -4.97809 5.56145 1.69345
C 35.5295 2.45423 6.20305
C 35.3348 4.9538 0.657842
C 0.733801 1.26499 1.95969
C -0.866336 1.40706 0.155252
C -0.156344 2.01469 1.19078
C 6.69055 2.15994 2.52204
C 5.09054 2.30194 0.717257
C 5.9805 1.55229 1.48643
C 6.51076 3.51716 2.78828
C 4.91063 3.65923 0.983838
C 5.62062 4.26685 2.01937
C 1.90546 2.85786 2.07951
C 0.30545 2.99986 0.274728
C 1.19541 2.25021 1.0439
C 1.72567 4.21508 2.34575
C 0.125535 4.35715 0.541308
C 0.835526 4.96478 1.57684
H -6.83253 5.80903 2.92922
H -2.83148 3.92705 2.05776
H 35.468 3.89627 0.441943
H -6.36106 4.41875 5.88487
H 6.11364 0.49476 1.27053
H 4.22301 4.26646 0.399077
H 1.32855 1.19268 0.827999
H -5.36919 7.36884 6.27093
N -5.35852 6.65597 4.93387
N 38.3365 1.34445 1.32129
N -1.64612 5.27839 3.90368
N -1.81274 6.3371 4.08056
N -4.08098 4.74321 2.44659
N 28.9153 7.48983 5.1484
N -0.368592 3.36563 1.41641
N -0.535211 4.42434 1.59328
N 7.58765 1.34169 3.27518
N -0.439083 4.08832 5.97698
N 5.40837 5.6178 2.24499
N 11.1334 1.02283 2.42187
N 2.80256 2.03962 2.83265
N -5.22417 4.78624 5.53446
N 0.623279 6.31572 1.80246
N 6.34834 1.72075 1.97934
O 0.106771 3.74631 5.3997
O -5.25365 5.44701 4.6322
O -4.71063 7.17892 5.86698
O 37.5416 2.03727 0.641285
O 32.6215 5.77608 1.0978
O 1.3843 1.83355 2.91243
O -3.97612 3.53425 2.14492
O -3.4331 5.26616 3.37971
O 34.012 2.52897 4.46839
O 29.0919 6.26778 4.92491
O 7.16127 4.08572 3.74102
O 1.80084 5.78642 2.97351
O 8.23554 1.86464 4.2083
O -1.23402 4.78114 5.29698
O -0.262416 2.86627 5.75349
O 2.37617 4.78364 3.29849
O -2.98425 6.48434 2.53098
O 3.45045 2.56257 3.76577
O -6.01911 5.47906 4.85445
O -5.04751 3.56419 5.31096
68
 Atoms. Timestep: 245
C -7.28102 1.95208 4.27466
C -9.25636 1.86025 2.75342
C -8.24186 1.2009 3.51061
C -7.42627 3.38433 4.35659
C -9.37008 3.26004 2.90608
C -8.50553 4.02638 3.69601
C -13.1302 6.16745 0.987423
C 39.0925 6.39464 -0.845172
C 40.0622 5.63162 -0.134105
C -5.89855 0.374782 1.31909
C -7.64601 0.556078 -0.360254
C -6.88289 1.1494 0.692603
C 2.17274 2.55034 2.09
C 0.387911 2.68178 0.292354
C 1.43249 1.98318 0.969071
C 1.91575 3.92194 2.36494
C 0.253827 4.08066 0.55291
C 1.02968 4.69266 1.58853
C -3.48178 2.93784 1.09192
C -5.07247 3.19931 -0.850852
C -4.10166 2.42818 -0.125482
C -3.85192 4.24148 1.52175
C -5.31206 4.51881 -0.417167
C -4.74163 5.00318 0.759042
H -15.5274 7.28413 3.32782
H -9.935 3.8132 2.17211
H 40.298 4.61604 -0.460507
H -8.46055 1.10471 -0.827454
H 1.64437 1.0547 0.483553
H -0.437325 4.67731 -0.0512126
H -3.97123 1.38116 -0.412879
H -6.12252 5.113 -0.844615
N -13.5239 8.4389 4.77285
N 43.9265 1.20012 1.63589
N -8.55568 5.44837 3.4898
N -8.34361 6.36115 4.45624
N -12.2391 5.31925 1.78351
N 31.9513 9.09295 6.49491
N -6.99852 2.52255 1.16024
N -7.78774 3.48324 0.648599
N 3.15162 1.82323 2.96011
N -0.498811 1.96488 -0.645034
N 0.963096 6.09167 1.94422
N 0.187307 7.00673 1.35003
N -2.64735 2.08619 1.96257
N -12.5188 5.84084 6.74669
N -5.2201 6.22128 1.26057
N -6.01768 6.28603 2.34409
O -6.45612 4.13682 4.84393
O -13.2899 7.19434 4.43314
O -5.08687 1.95099 5.30516
O 43.365 1.90881 0.682249
O 36.5097 7.05377 1.47416
O -5.12712 0.977344 2.18743
O -12.3531 4.02073 1.72025
O -11.4338 5.8161 2.68554
O 38.6658 2.69047 5.7162
O 32.1478 7.84683 6.13185
O 2.55263 4.54104 3.34626
O 3.76419 0.690143 2.62563
O 3.5933 2.34432 4.07789
O -7.85526 5.86543 7.14694
O -0.556224 0.655016 -0.669959
O -3.4512 4.73337 2.68798
O -2.36595 0.857183 1.63308
O -2.28458 2.47463 3.16746
O -13.7622 6.24452 6.71273
O -12.1955 4.80095 6.01334
68
 Atoms. Timestep: 10253
C -6.89164 2.10457 4.47094
C -9.10904 1.31503 3.78874
C -15.2702 8.21415 4.28876
C -7.26997 3.42847 4.14902
C -9.47169 2.63991 3.49392
C -8.57666 3.69744 3.67827
C -13.5787 6.30762 0.207545
C 39.5533 2.54441 6.94946
C 39.617 5.74812 -0.905641
C -6.51561 0.443417 0.649497
C 39.1898 3.82467 7.40452
C -7.52963 1.15065 -0.0165452
C 1.884 3.00566 2.16706
C 0.388017 3.4447 0.275998
C 1.30954 2.61958 0.943915
C 1.53879 4.25963 2.72003
C 0.0545107 4.68583 0.844298
C 0.625426 5.09915 2.05972
C -3.09408 3.1228 1.60695
C -3.87522 2.23229 -0.548072
C -3.03598 2.16116 0.576687
C -4.02549 4.18916 1.48807
C -4.79601 3.2867 -0.632536
C -4.89394 4.25222 0.371501
H -14.9783 7.20198 4.53718
H -10.4616 2.86274 3.11605
H 33.42 8.01812 7.28351
H 38.411 4.37391 6.89295
H 1.57749 1.66316 0.515948
H -0.661204 5.32593 0.34607
H -2.32695 1.34807 0.650053
H -11.9699 6.60004 7.06089
N -5.56307 1.7957 4.94502
N 36.3543 7.38158 3.57973
N -9.03707 5.00781 3.3671
N -8.35375 6.11838 3.68462
N -12.5384 5.55881 0.876013
N 38.8949 1.95423 5.80507
N -7.9 2.44126 0.451897
N -8.85062 3.17614 -0.147997
N 2.8135 2.12081 2.82786
N -0.213648 3.0169 -0.964992
N 0.289109 6.3531 2.63933
N -0.591434 7.1916 2.06902
N -2.21771 2.98585 2.7576
N -10.315 4.47216 6.95317
N -5.89064 5.25719 0.212797
N -6.22843 6.11959 1.18476
O -6.38322 4.39554 4.22849
O -12.4564 7.80692 4.64827
O -4.92225 2.61851 5.72325
O 35.1431 7.61612 3.16431
O 36.7073 6.14573 3.7881
O -5.94278 0.986442 1.70029
O 41.3001 4.25711 0.858973
O -11.5351 6.16304 1.44303
O 37.9615 2.5986 5.16594
O 31.7657 7.91212 5.39051
O 2.09494 4.66951 3.84075
O 3.57666 1.32819 2.13186
O 2.83921 2.02951 4.12615
O -7.39572 7.09747 6.83727
O -6.60688 5.03182 7.17429
O -4.07939 5.12575 2.40952
O -1.55139 1.88488 2.95273
O -2.05441 3.95162 3.61454
O -11.1336 4.50609 5.9414
O -9.46759 3.48656 7.02723
68
 Atoms. Timestep: 20270
C -6.90353 2.15182 4.69751
C -16.4851 8.16793 4.30314
C -15.1888 8.18097 4.8412
C -7.37503 3.28325 3.99311
C -9.49192 2.15506 3.6072
C -8.68248 3.28497 3.45027
C -13.4014 6.45621 0.0565305
C 40.3849 3.22235 6.42083
C 33.6232 9.44406 7.2312
C -6.42275 0.52347 0.614279
C -13.8335 4.4238 6.99599
C -7.11204 1.45267 -0.181792
C 1.02285 3.10237 1.97336
C -0.215413 3.79575 -0.0240656
C 0.60747 2.87472 0.650431
C 0.61428 4.28312 2.62988
C -0.621208 4.96042 0.651714
C -0.211612 5.20967 1.97247
C -2.97871 2.69469 2.05633
C -3.29949 1.77889 -0.199447
C -2.77294 1.68207 1.09879
C -3.7419 3.83418 1.68997
C -4.05684 2.9108 -0.535703
C -4.2984 3.92702 0.391049
H -14.8226 7.31629 5.37617
H -10.4909 2.17362 3.19007
H 33.9935 8.5253 6.79504
H -14.3655 5.14024 6.38698
H 0.918741 1.96455 0.153507
H -1.26285 5.67297 0.151247
H -2.18001 0.817701 1.36249
H -10.9804 6.25456 7.00859
N -5.57045 2.108 5.2459
N 36.436 7.01127 4.46304
N -9.23323 4.39176 2.74334
N -8.57932 5.5511 2.56473
N -12.6745 5.48956 0.848982
N 40.1509 2.94523 5.02128
N -7.56892 2.66526 0.402688
N -8.23246 3.59528 -0.303762
N 1.86455 2.13536 2.63112
N -7.14091 6.79579 7.15336
N -0.62022 6.38578 2.65892
N -1.42072 7.30339 2.09182
N -2.41053 2.54241 3.38205
N -9.57024 3.98262 7.36486
N -5.10828 5.01762 -0.035602
N -5.60665 5.93685 0.806541
O -6.57623 4.31037 3.80513
O -12.362 8.1294 5.2901
O -5.03686 3.16458 5.78736
O 35.3205 6.90793 3.79943
O 36.7698 6.0439 5.26837
O -6.2364 0.787961 1.88952
O 41.0844 4.22825 0.52571
O -11.9323 5.86502 1.85063
O 39.686 3.86657 4.22671
O 40.3934 1.76615 4.52518
O 1.0281 4.54095 3.85335
O 2.78301 1.50061 1.96182
O 1.67537 1.83053 3.88262
O -7.85197 7.67217 6.50388
O -6.8296 5.68509 6.55093
O -3.92154 4.81187 2.55132
O -2.04096 1.36943 3.80982
O -2.20929 3.56702 4.15944
O -10.0965 4.05448 6.17655
O -2.34452 -0.307231 -0.878319
68
 Atoms. Timestep: 30276
C -7.11257 2.01581 4.7816
C -16.4797 7.90036 3.93011
C -15.3073 7.97457 4.70024
C -7.5523 3.15689 4.07095
C -9.45266 1.89875 3.22934
C -8.73208 3.09513 3.29084
C -13.0464 6.5557 0.0871456
C -12.8116 3.33789 6.37328
C -19.6207 9.57216 7.2356
C -6.19023 0.585407 0.613318
C -13.3752 4.5039 6.91749
C -6.82511 1.50527 -0.237445
C 0.676531 3.17712 1.83425
C -0.411692 4.20043 -0.107714
C 0.400173 3.19966 0.456833
C 0.135613 4.18402 2.66214
C -0.950327 5.18892 0.73602
C -0.68203 5.18683 2.11557
C -3.0693 2.45365 2.26831
C -3.08456 1.91296 -0.124224
C -2.71359 1.61375 1.19719
C -3.81428 3.62855 1.99867
C -3.81865 3.08375 -0.369282
C -4.19958 3.93489 0.670811
H -14.972 7.10474 5.24629
H -10.3496 1.86816 2.6236
H 34.5965 8.68447 6.82283
H -13.8677 5.21153 6.26634
H 0.81001 2.41906 -0.171506
H -1.58257 5.96149 0.319286
H -2.13164 0.724544 1.39659
H -10.6164 6.58582 7.15633
N -5.90563 2.0384 5.57422
N 36.5182 6.67108 3.85758
N -9.23663 4.2007 2.54842
N -8.61312 5.38793 2.47809
N -12.3733 5.59717 0.936795
N 40.8673 3.07775 4.95382
N -7.4046 2.67907 0.316776
N -8.03548 3.59273 -0.439148
N 1.51664 2.13843 2.37332
N -7.1901 7.45888 7.00894
N -1.22409 6.18499 2.97095
N -2.02713 7.15991 2.51349
N -2.67852 2.09055 3.61395
N -9.23153 4.27544 7.32571
N -4.97146 5.08044 0.325785
N -5.57014 5.86456 1.23645
O -6.8508 4.26703 4.12472
O -12.6326 8.10594 5.70715
O -5.55995 3.10352 6.23834
O 35.4848 6.56939 3.07189
O 36.8537 5.6363 4.57366
O -6.16967 0.822706 1.90716
O -12.2491 4.35574 0.563664
O -11.8196 5.96305 2.05642
O 40.4624 3.99875 4.12711
O 41.1685 1.90537 4.47458
O 0.423138 4.21335 3.94706
O 2.53428 1.6978 1.69155
O 1.23222 1.5767 3.51282
O -7.96275 8.36736 6.4868
O -6.67163 6.56216 6.2203
O -4.14182 4.43613 2.98332
O -9.90587 7.98954 3.92279
O -2.48314 2.99557 4.52906
O -9.58823 4.54709 6.10351
O -2.09658 -0.0872961 -0.983184
68
 Atoms. Timestep: 40278
C -7.08393 2.02583 4.81273
C -16.3688 7.85775 3.86108
C -15.2257 7.95729 4.67212
C -7.5498 3.16955 4.12233
C -9.36738 1.85927 3.18059
C -8.69964 3.08193 3.30032
C -13.0007 6.54359 0.0971572
C -12.7528 3.2943 6.36883
C -19.5517 9.54913 7.24594
C -6.17712 0.564481 0.606806
C -13.3533 4.44901 6.89803
C -6.82612 1.46132 -0.257784
C 0.633796 3.16203 1.7345
C -0.498038 4.31211 -0.109632
C 0.327084 3.27748 0.367987
C 0.109456 4.10909 2.64041
C -1.01918 5.23968 0.81073
C -0.721134 5.1446 2.18083
C -3.10911 2.47771 2.30345
C -3.09722 1.94502 -0.0909853
C -2.72896 1.64879 1.23201
C -3.87807 3.63684 2.03224
C -3.85165 3.10235 -0.337528
C -4.25906 3.94053 0.702776
H -14.8713 7.08535 5.20259
H -10.2409 1.80939 2.54216
H -19.0642 8.66977 6.8454
H -13.8553 5.13999 6.23604
H 0.724751 2.54342 -0.321154
H -1.66301 6.03584 0.461482
H -2.12969 0.771148 1.43213
H -10.6459 6.6021 7.18634
N -5.90159 2.07181 5.64215
N 36.6874 6.5995 3.72318
N -9.22346 4.18615 2.56922
N -8.64263 5.39659 2.54463
N -12.3178 5.60511 0.962191
N 40.955 3.02467 4.94963
N -7.44214 2.62336 0.281955
N -8.09245 3.51301 -0.485862
N 1.48646 2.09066 2.18343
N -7.30791 7.66563 7.017
N -1.24731 6.08005 3.11354
N -2.06421 7.0794 2.74121
N -2.71594 2.12147 3.65045
N -9.22198 4.31677 7.35838
N -5.05272 5.07063 0.356662
N -5.67893 5.83458 1.26566
O -6.90227 4.30797 4.23679
O -12.6001 8.15886 5.77956
O -5.60308 3.13709 6.32864
O 35.6494 6.49456 2.94384
O 37.0823 5.54099 4.37104
O -6.17126 0.816168 1.89778
O -12.1501 4.36762 0.593093
O -11.8027 5.98523 2.09547
O 40.5265 3.92564 4.11291
O 41.3115 1.8641 4.47962
O 0.423464 4.0514 3.91811
O 2.48144 1.69051 1.44537
O 1.2341 1.46 3.29408
O -8.04809 8.63772 6.5678
O -6.85134 6.79341 6.16522
O -4.23103 4.4333 3.01687
O -9.90228 8.02692 3.95556
O -2.55637 3.02855 4.57041
O -9.57057 4.58904 6.13399
O -2.08191 -0.0420783 -0.947506
68
 Atoms. Timestep: 50280
C -7.07057 2.01436 4.82977
C -16.3546 7.86961 3.84533
C -15.217 7.95116 4.66604
C -7.52717 3.17135 4.15543
C -9.34366 1.88419 3.17992
C -8.67186 3.102 3.32431
C -12.99 6.53782 0.100138
C -12.7483 3.28565 6.37229
C -19.5404 9.54365 7.2485
C -6.17417 0.55485 0.610864
C -13.3575 4.43522 6.90283
C -6.83127 1.44703 -0.252543
C 0.617885 3.14638 1.66995
C -0.542239 4.36095 -0.114382
C 0.283757 3.30582 0.314168
C 0.120082 4.06951 2.61498
C -1.03555 5.26465 0.844195
C -0.710252 5.12555 2.20423
C -3.11546 2.49447 2.31579
C -3.08909 1.92863 -0.0708978
C -2.72562 1.65284 1.25779
C -3.88931 3.64548 2.02458
C -3.84895 3.07795 -0.33713
C -4.26658 3.92755 0.689562
H -14.8702 7.06922 5.18512
H -10.2131 1.8484 2.53491
H -19.047 8.66811 6.847
H -13.8652 5.12294 6.2417
H 0.661074 2.59051 -0.405489
H -1.6805 6.0755 0.532827
H -2.12251 0.781402 1.47279
H -10.6394 6.56203 7.18168
N -5.89167 2.04063 5.66491
N 36.6988 6.61664 3.68171
N -9.18687 4.22031 2.60848
N -8.61119 5.43335 2.62182
N -12.2995 5.60366 0.963971
N 40.9639 3.0181 4.95253
N -7.45588 2.60397 0.288457
N -8.11508 3.4882 -0.478084
N 1.47073 2.05512 2.06819
N -7.38153 7.759 7.02293
N -1.20912 6.03638 3.17555
N -2.02429 7.05352 2.85055
N -2.72621 2.15955 3.66941
N -9.20402 4.28734 7.39229
N -5.06642 5.0471 0.324916
N -5.71674 5.80706 1.22017
O -6.87647 4.30537 4.29411
O -12.5965 8.12086 5.78869
O -5.58788 3.09436 6.36674
O 35.6681 6.52786 2.89059
O 37.0833 5.54665 4.31678
O -6.1669 0.807125 1.90169
O -12.1225 4.3679 0.593428
O -11.7866 5.98634 2.09743
O 40.5297 3.91742 4.1169
O 41.3318 1.86194 4.48053
O 0.45823 3.9697 3.88391
O 2.44275 1.66566 1.29458
O 1.24083 1.39758 3.16814
O -8.09218 8.77025 6.61445
O -6.98363 6.88792 6.14099
O -4.24831 4.45622 2.99522
O -9.90142 8.07122 3.99185
O -2.58026 3.07995 4.57834
O -9.56128 4.53325 6.1649
O -2.04827 -0.0584042 -0.896598
68
 Atoms. Timestep: 60282
C -7.06614 1.99255 4.84237
C -16.3593 7.88539 3.82741
C -15.2257 7.94019 4.65584
C -7.5065 3.16616 4.18609
C -9.33195 1.91629 3.17915
C -8.6478 3.12401 3.34839
C -12.9807 6.53463 0.10033
C -12.7471 3.28648 6.37566
C -19.533 9.54421 7.24788
C -6.16962 0.547752 0.615867
C -13.3612 4.43111 6.91104
C -6.83353 1.439 -0.243419
C 0.60466 3.13439 1.62192
C -0.568203 4.39156 -0.124175
C 0.254742 3.32221 0.27366
C 0.125642 4.04306 2.59059
C -1.04191 5.28089 0.857394
C -0.700848 5.11341 2.21031
C -3.11958 2.50901 2.33034
C -3.07718 1.91405 -0.048991
C -2.72074 1.65575 1.28507
C -3.89499 3.65398 2.02026
C -3.83978 3.05706 -0.333759
C -4.26663 3.91725 0.680076
H -14.892 7.04574 5.16229
H -10.1984 1.90134 2.52938
H -19.036 8.67236 6.84266
H -13.8739 5.11824 6.25307
H 0.617549 2.61832 -0.46452
H -1.68487 6.10195 0.569601
H -2.11618 0.788966 1.51429
H -10.6249 6.52772 7.18037
N -5.88922 1.99022 5.6807
N 36.6824 6.64335 3.63837
N -9.14769 4.26047 2.65056
N -8.57024 5.47158 2.70353
N -12.2834 5.60137 0.95977
N 40.9663 3.02404 4.95492
N -7.46337 2.59095 0.302268
N -8.13061 3.47275 -0.460176
N 1.45402 2.02927 1.98845
N -7.42441 7.81842 7.0207
N -1.18021 6.00953 3.20488
N -1.99061 7.03937 2.90938
N -2.73745 2.19188 3.69021
N -2.68565 1.01152 -1.1068
N -5.06976 5.02831 0.29801
N -5.74213 5.78458 1.17997
O -6.84415 4.29038 4.34799
O -12.6072 8.05882 5.78845
O -5.57159 3.02961 6.39763
O 35.6602 6.57779 2.83419
O 37.0473 5.56003 4.26231
O -6.15981 0.796688 1.90734
O -12.102 4.36738 0.585509
O -11.768 5.98359 2.0923
O 40.5284 3.92495 4.12294
O 41.3396 1.87155 4.47815
O 0.477535 3.91596 3.85333
O 2.40985 1.64401 1.1928
O 1.23675 1.35627 3.08163
O -8.10929 8.85672 6.63692
O -7.06888 6.94655 6.12152
O -4.25897 4.47809 2.97769
O -9.90925 8.10806 4.02885
O -2.60064 3.12359 4.58897
O -9.54627 4.48326 6.19726
O -2.01232 -0.0719751 -0.846226
68
 Atoms. Timestep: 70285
C -7.06587 1.97281 4.84984
C -16.3675 7.89947 3.80963
C -15.2372 7.93052 4.64401
C -7.49156 3.16047 4.20919
C -9.32541 1.94433 3.17652
C -8.62996 3.14246 3.36663
C -12.9732 6.53204 0.0965656
C -12.7471 3.29106 6.3759
C -19.5278 9.54684 7.24318
C -6.16528 0.541577 0.618123
C -13.3643 4.43117 6.91727
C -6.83451 1.43378 -0.236141
C 0.595073 3.12634 1.59261
C -0.581588 4.40866 -0.132497
C 0.237941 3.3307 0.248582
C 0.126584 4.02695 2.57403
C -1.04439 5.28991 0.861428
C -0.696106 5.10595 2.21033
C -3.1232 2.51911 2.34449
C -3.0669 1.90413 -0.0293931
C -2.71698 1.65789 1.30866
C -3.89901 3.65987 2.02054
C -3.83112 3.04256 -0.327807
C -4.26535 3.91002 0.676557
H -14.9155 7.02541 5.13936
H -10.1894 1.94786 2.52318
H -19.0288 8.67836 6.83339
H -13.881 5.11903 6.26321
H 0.592614 2.63329 -0.499672
H -1.68505 6.11713 0.586412
H -2.11183 0.79439 1.54846
H -10.6114 6.50392 7.1829
N -5.891 1.94539 5.6907
N 36.664 6.66778 3.59915
N -9.11606 4.29435 2.68448
N -8.53522 5.50202 2.76932
N -12.2706 5.59783 0.950658
N 40.9664 3.0348 4.95406
N -7.46755 2.58122 0.315364
N -8.14128 3.46245 -0.442086
N 1.44081 2.01279 1.94184
N -7.44538 7.85241 7.01662
N -1.1645 5.99386 3.21742
N -1.9707 7.03143 2.93795
N -2.74797 2.21412 3.70898
N -2.66742 0.993915 -1.07752
N -5.07034 5.01501 0.281678
N -5.75851 5.76864 1.15365
O -6.81851 4.2754 4.39028
O -12.6221 8.00329 5.7865
O -5.56006 2.97281 6.41877
O 35.649 6.62298 2.7845
O 37.0113 5.5731 4.21315
O -6.15299 0.785576 1.91054
O -12.0871 4.36561 0.57166
O -11.7519 5.97786 2.08243
O 40.525 3.93828 4.1267
O 41.3429 1.88575 4.47155
O 0.48465 3.88399 3.83335
O 2.38723 1.6288 1.13439
O 1.2294 1.33164 3.03113
O -8.11076 8.9079 6.64566
O -7.11651 6.979 6.10878
O -4.26721 4.49323 2.96829
O -9.92026 8.13293 4.05952
O -2.61635 3.15371 4.60028
O -9.53184 4.44833 6.22464
O -1.98265 -0.0796708 -0.805986
68
 Atoms. Timestep: 80288
C -7.06654 1.96097 4.8533
C -16.3729 7.90901 3.79725
C -15.2449 7.925 4.63514
C -7.48302 3.15733 4.22273
C -9.32194 1.96276 3.17405
C -8.61947 3.15459 3.37734
C -12.9689 6.52984 0.0914497
C -12.7482 3.29564 6.37414
C -19.5254 9.54916 7.23731
C -6.16275 0.53696 0.618
C -13.367 4.43251 6.92046
C -6.83534 1.43064 -0.232129
C 0.589738 3.12172 1.5784
C -0.587674 4.41661 -0.136754
C 0.229733 3.33432 0.236382
C 0.126153 4.01834 2.56587
C -1.04542 5.29384 0.863003
C -0.694267 5.10168 2.21001
C -3.1257 2.52442 2.35434
C -3.06067 1.89834 -0.0163682
C -2.71491 1.65885 1.32398
C -3.90161 3.66275 2.0224
C -3.82583 3.03405 -0.322648
C -4.26457 3.90551 0.676245
H -14.9307 7.01325 5.12322
H -10.1842 1.97799 2.51864
H -19.0253 8.68306 6.82376
H -13.8864 5.12144 6.26963
H 0.580622 2.64015 -0.516671
H -1.68466 6.12415 0.594003
H -2.10948 0.79727 1.56993
H -10.6031 6.49019 7.1861
N -5.89326 1.91777 5.69582
N 36.6527 6.68407 3.57315
N -9.09681 4.31606 2.70528
N -8.51325 5.52092 2.80926
N -12.2629 5.59419 0.941145
N 40.9653 3.04449 4.95141
N -7.46987 2.57494 0.324189
N -8.14754 3.45668 -0.429177
N 1.43328 2.00391 1.91943
N -7.45439 7.86884 7.01436
N -1.15754 5.98555 3.22301
N -1.9613 7.027 2.9511
N -2.75493 2.22619 3.72147
N -2.65612 0.984029 -1.05892
N -5.07054 5.00698 0.273973
N -5.76739 5.75933 1.14014
O -6.80341 4.26624 4.41595
O -12.6328 7.96867 5.7849
O -5.55376 2.93778 6.43031
O 35.642 6.65259 2.75248
O 36.9892 5.58221 4.18028
O -6.14857 0.776643 1.91123
O -12.0786 4.36332 0.558149
O -11.7415 5.97184 2.07246
O 40.5212 3.95019 4.12793
O 41.3438 1.89812 4.46413
O 0.486624 3.86751 3.82357
O 2.37506 1.62021 1.10642
O 1.22441 1.319 3.00685
O -8.10854 8.93333 6.64924
O -7.13932 6.99436 6.10264
O -4.27249 4.50119 2.9646
O -9.92837 8.14612 4.07894
O -2.62564 3.17024 4.60841
O -9.52252 4.42846 6.2422
O -1.96429 -0.0834164 -0.781174
68
 Atoms. Timestep: 90293
C -7.06715 1.95532 4.85462
C -16.3756 7.91438 3.79019
C -15.2489 7.92245 4.62987
C -7.47883 3.15622 4.22946
C -9.32026 1.97301 3.17234
C -8.61418 3.16148 3.3826
C -12.9669 6.52823 0.0874544
C -12.7496 3.29864 6.37222
C -19.5246 9.55039 7.23286
C -6.16178 0.534187 0.617097
C -13.369 4.43366 6.92161
C -6.83617 1.42898 -0.230472
C 0.587158 3.11932 1.57254
C -0.590524 4.42 -0.138047
C 0.225899 3.33574 0.231444
C 0.125758 4.01408 2.56277
C -1.04601 5.29534 0.864374
C -0.693609 5.09938 2.2105
C -3.12722 2.52686 2.3598
C -3.05767 1.89523 -0.0092788
C -2.71408 1.65913 1.33222
C -3.90316 3.66394 2.02382
C -3.82334 3.02952 -0.319538
C -4.26438 3.90298 0.676574
H -14.9385 7.00723 5.11403
H -10.1816 1.99439 2.51586
H -19.024 8.68566 6.81697
H -13.8899 5.12337 6.2728
H 0.575096 2.6431 -0.523809
H -1.68459 6.12704 0.598128
H -2.1085 0.798551 1.58129
H -10.5991 6.48302 7.18821
N -5.89484 1.90387 5.6981
N 36.6477 6.69303 3.55885
N -9.08691 4.32792 2.71591
N -8.50173 5.53111 2.82963
N -12.2591 5.59149 0.934431
N 40.9644 3.05068 4.94896
N -7.47127 2.57151 0.328823
N -8.15093 3.45388 -0.422031
N 1.4297 1.99959 1.9098
N -7.45848 7.87616 7.01398
N -1.15458 5.98136 3.2262
N -1.9572 7.02458 2.95776
N -2.75878 2.23204 3.72826
N -2.65045 0.978916 -1.049
N -5.07083 5.00266 0.270555
N -5.77182 5.75455 1.13378
O -6.79592 4.26195 4.42917
O -12.6387 7.95086 5.78388
O -5.55088 2.92003 6.43586
O 35.6393 6.66861 2.73519
O 36.9788 5.58738 4.16209
O -6.14647 0.771141 1.91083
O -12.0745 4.36143 0.548944
O -11.7359 5.96752 2.06551
O 40.5186 3.95773 4.12792
O 41.3442 1.90599 4.4587
O 0.487259 3.8596 3.81974
O 2.36931 1.61601 1.09421
O 1.22205 1.31299 2.99639
O -8.10742 8.94475 6.65153
O -7.14972 7.00127 6.10049
O -4.27543 4.50492 2.9632
O -9.93278 8.15223 4.08927
O -2.63046 3.17835 4.61293
O -9.51779 4.41828 6.2516
O -1.95492 -0.0852992 -0.768138
68
 Atoms. Timestep: 100000
C -7.06714 1.95273 4.855
C -16.3767 7.91719 3.78661
C -15.2505 7.9215 4.62713
C -7.47668 3.15585 4.23238
C -9.31911 1.97797 3.17128
C -8.61146 3.16492 3.38482
C -12.9659 6.52744 0.0852095
C -12.75 3.30001 6.37101
C -19.5242 9.55104 7.2304
C -6.16105 0.53267 0.61637
C -13.3699 4.43421 6.92191
C -6.83636 1.42813 -0.229944
C 0.586157 3.11818 1.57044
C -0.591858 4.42145 -0.138147
C 0.224287 3.33629 0.229757
C 0.125616 4.01214 2.56187
C -1.04645 5.296 0.865433
C -0.693433 5.09836 2.21117
C -3.1278 2.52787 2.36238
C -3.05611 1.8936 -0.00591763
C -2.71349 1.65907 1.33613
C -3.90385 3.66446 2.02448
C -3.82213 3.02731 -0.318065
C -4.2643 3.90177 0.676724
H -14.9419 7.00458 5.10942
H -10.18 2.00227 2.5143
H -19.0233 8.6869 6.81338
H -13.8915 5.12439 6.27409
H 0.572815 2.64428 -0.526453
H -1.68484 6.12835 0.600388
H -2.10777 0.798902 1.58668
H -10.5972 6.47959 7.18924
N -5.89533 1.89737 5.69895
N 36.6451 6.69747 3.55184
N -9.08211 4.33379 2.72064
N -8.49619 5.53621 2.83881
N -12.2571 5.59005 0.930855
N 40.9635 3.05363 4.94748
N -7.47177 2.5699 0.330812
N -8.15243 3.4527 -0.418812
N 1.42843 1.99757 1.90606
N -7.46044 7.87934 7.0143
N -1.15347 5.97955 3.22805
N -1.95573 7.0236 2.96112
N -2.76039 2.23462 3.73147
N -2.64756 0.976295 -1.04429
N -5.07106 5.0007 0.268921
N -5.77393 5.75251 1.13076
O -6.79236 4.26015 4.43517
O -12.6414 7.94267 5.78323
O -5.54938 2.91176 6.43822
O 35.6378 6.67641 2.72676
O 36.9736 5.58995 4.15327
O -6.14517 0.768271 1.91036
O -12.0724 4.36031 0.544129
O -11.7332 5.96524 2.06185
O 40.5166 3.96141 4.12766
O 41.344 1.90972 4.45575
O 0.487609 3.85605 3.81852
O 2.36711 1.61409 1.08935
O 1.22146 1.31014 2.9923
O -8.10734 8.94971 6.65302
O -7.15425 7.00429 6.10002
O -4.27683 4.50667 2.96254
O -9.93484 8.15508 4.09417
O -2.63259 3.18205 4.61505
O -9.51537 4.41331 6.25607
O -1.95018 -0.0864682 -0.761951
68
 Atoms. Timestep: 100296
C -7.06771 1.95291 4.85501
C -16.3768 7.917 3.78654
C -15.2507 7.92126 4.62707
C -7.47707 3.15596 4.23244
C -9.31968 1.97825 3.17126
C -8.61186 3.16508 3.38487
C -12.966 6.52718 0.085166
C -12.7507 3.30021 6.37097
C -19.5243 9.55078 7.23033
C -6.16166 0.532856 0.61636
C -13.3704 4.43432 6.9219
C -6.83689 1.42824 -0.229923
C 0.585959 3.11821 1.5704
C -0.591924 4.42139 -0.13814
C 0.224113 3.33629 0.22973
C 0.125503 4.01211 2.56186
C -1.04643 5.29588 0.865461
C -0.693439 5.09826 2.21119
C -3.12816 2.52801 2.36243
C -3.05646 1.89367 -0.00584258
C -2.7139 1.65923 1.33621
C -3.90411 3.66449 2.0245
C -3.82238 3.02728 -0.318023
C -4.2645 3.90171 0.67674
H -14.9422 7.00439 5.10932
H -10.1805 2.00258 2.51427
H -19.0235 8.68671 6.81329
H -13.892 5.12445 6.27411
H 0.572576 2.64434 -0.526498
H -1.68474 6.12817 0.600442
H -2.10825 0.799134 1.58679
H -10.5974 6.47948 7.18925
N -5.8959 1.8975 5.69897
N 36.6462 6.6974 3.5517
N -9.08234 4.33389 2.72074
N -8.49627 5.53621 2.839
N -12.2573 5.58987 0.930778
N 40.9643 3.05385 4.94744
N -7.47221 2.56992 0.330864
N -8.1528 3.45265 -0.418729
N 1.42812 1.99767 1.90598
N -7.46046 7.87925 7.0143
N -1.15339 5.97939 3.22809
N -1.95555 7.02337 2.96119
N -2.76082 2.23484 3.73153
N -2.64795 0.976389 -1.04419
N -5.07116 5.00053 0.268907
N -5.77402 5.75231 1.13072
O -6.7926 4.26016 4.43529
O -12.6416 7.94232 5.78322
O -5.5498 2.9118 6.43827
O 35.6389 6.67638 2.7266
O 36.9746 5.58994 4.15309
O -6.14577 0.768442 1.91035
O -12.0727 4.36022 0.544027
O -11.7334 5.96504 2.06176
O 40.5175 3.96155 4.12765
O 41.3448 1.91003 4.45567
O 0.487477 3.85604 3.81849
O 2.36678 1.6142 1.08925
O 1.22107 1.31031 2.99222
O -8.10723 8.94956 6.65304
O -7.15439 7.00424 6.1
O -4.27704 4.50668 2.96253
O -9.93486 8.15488 4.09426
O -2.63294 3.18224 4.61509
O -9.51572 4.4133 6.25615
O -1.95064 -0.0862586 -0.761824
68
 Atoms. Timestep: 110298
C -7.06829 1.95191 4.85501
C -16.3775 7.91817 3.78465
C -15.2517 7.92059 4.62558
C -7.4765 3.15599 4.23366
C -9.31972 1.98094 3.17057
C -8.61102 3.16696 3.38574
C -12.9656 6.5265 0.0840572
C -12.7515 3.30094 6.37031
C -19.5242 9.55071 7.22912
C -6.1619 0.532355 0.615923
C -13.3713 4.43465 6.92191
C -6.83753 1.42798 -0.229798
C 0.585345 3.11774 1.56976
C -0.592665 4.42194 -0.137914
C 0.223236 3.33652 0.22927
C 0.125271 4.01128 2.56173
C -1.04676 5.29607 0.866182
C -0.69351 5.09777 2.21174
C -3.12882 2.52863 2.36365
C -3.05607 1.8929 -0.00421277
C -2.71401 1.6593 1.33812
C -3.90475 3.66481 2.02473
C -3.8221 3.02617 -0.317365
C -4.26474 3.90112 0.676712
H -14.9441 7.00293 5.10694
H -10.1803 2.00671 2.51335
H -19.0233 8.68693 6.81156
H -13.8933 5.12493 6.27456
H 0.5714 2.64485 -0.527368
H -1.68498 6.1286 0.60168
H -2.10834 0.799455 1.58945
H -10.5968 6.4777 7.18966
N -5.89672 1.89458 5.69919
N 36.6461 6.69943 3.54818
N -9.08036 4.3369 2.72279
N -8.49377 5.53876 2.84312
N -12.2566 5.58894 0.929074
N 40.9648 3.05527 4.94667
N -7.47294 2.56929 0.331636
N -8.15398 3.45215 -0.417403
N 1.42739 1.9969 1.90463
N -7.46146 7.8805 7.01469
N -1.15304 5.97854 3.22914
N -1.955 7.02283 2.96289
N -2.76203 2.2363 3.73307
N -2.64695 0.975108 -1.04186
N -5.07149 4.99952 0.267956
N -5.77524 5.75129 1.12905
O -6.79125 4.25942 4.43798
O -12.643 7.93808 5.78272
O -5.54957 2.90801 6.4392
O 35.6394 6.68002 2.72231
O 36.9731 5.59114 4.14877
O -6.14573 0.767367 1.91002
O -12.0719 4.35949 0.541749
O -11.7323 5.96373 2.06005
O 40.5175 3.96323 4.12742
O 41.3456 1.91184 4.45424
O 0.487449 3.85454 3.81823
O 2.36567 1.61352 1.08743
O 1.22061 1.30921 2.99071
O -8.1073 8.95154 6.65394
O -7.15656 7.00542 6.10007
O -4.278 4.50763 2.96207
O -9.9358 8.15601 4.09667
O -2.63435 3.18426 4.61606
O -9.51491 4.41078 6.25834
O -1.94877 -0.0867694 -0.758726
68
 Atoms. Timestep: 120300
C -7.06891 1.95144 4.85488
C -16.378 7.91872 3.78351
C -15.2523 7.92009 4.62466
C -7.47643 3.15609 4.23417
C -9.32005 1.98257 3.17008
C -8.6108 3.16811 3.38607
C -12.9654 6.526 0.0835122
C -12.7521 3.30132 6.36997
C -19.5241 9.55046 7.22852
C -6.16229 0.532227 0.615671
C -13.3721 4.43484 6.92186
C -6.83813 1.42793 -0.229802
C 0.584957 3.11753 1.56964
C -0.593129 4.42217 -0.137651
C 0.222728 3.33661 0.229228
C 0.125035 4.0109 2.56184
C -1.04705 5.29613 0.866666
C -0.693684 5.09753 2.21215
C -3.12937 2.52907 2.36429
C -3.05601 1.89247 -0.00332477
C -2.71425 1.6594 1.33917
C -3.90529 3.66507 2.02477
C -3.82209 3.02554 -0.317072
C -4.26503 3.90082 0.676583
H -14.9453 7.002 5.10554
H -10.1806 2.00914 2.51273
H -19.0232 8.68682 6.81074
H -13.8942 5.12517 6.27471
H 0.570774 2.64509 -0.527594
H -1.68524 6.12876 0.602392
H -2.10857 0.799694 1.59097
H -10.5965 6.47667 7.1898
N -5.89747 1.89303 5.69917
N 36.6466 6.70047 3.54618
N -9.07946 4.33867 2.72373
N -8.49249 5.54024 2.84514
N -12.2561 5.58835 0.928267
N 40.9655 3.05594 4.94627
N -7.4736 2.56907 0.331916
N -8.15488 3.45195 -0.416875
N 1.42698 1.99658 1.90419
N -7.46204 7.88104 7.01503
N -1.15303 5.97814 3.22977
N -1.95491 7.02257 2.96381
N -2.76291 2.23726 3.7339
N -2.64654 0.97435 -1.04055
N -5.07182 4.99897 0.267262
N -5.77607 5.75076 1.12791
O -6.7907 4.25908 4.43928
O -12.6439 7.93553 5.78229
O -5.54967 2.90597 6.43953
O 35.6402 6.68196 2.71983
O 36.9727 5.59175 4.14642
O -6.14598 0.767008 1.90981
O -12.0714 4.35899 0.540667
O -11.7318 5.96296 2.05927
O 40.5179 3.96399 4.12727
O 41.3465 1.91271 4.45355
O 0.487298 3.85386 3.81828
O 2.36513 1.6133 1.08679
O 1.22033 1.30872 2.99019
O -8.10742 8.95243 6.65449
O -7.15772 7.00589 6.10028
O -4.27872 4.50828 2.96168
O -9.93629 8.15655 4.09803
O -2.63537 3.18555 4.61655
O -9.51462 4.40928 6.25958
O -1.94787 -0.087079 -0.756932
68
 Atoms. Timestep: 130303
C -7.06955 1.95127 4.85471
C -16.3783 7.91889 3.78286
C -15.2527 7.91969 4.62411
C -7.47665 3.15622 4.23431
C -9.32054 1.98357 3.16973
C -8.61094 3.16883 3.38612
C -12.9653 6.5256 0.083296
C -12.7527 3.30153 6.36982
C -19.524 9.55012 7.22829
C -6.16277 0.532308 0.615545
C -13.3727 4.43497 6.92181
C -6.83871 1.42801 -0.229847
C 0.584684 3.11745 1.56973
C -0.593448 4.42223 -0.137428
C 0.222409 3.33663 0.229341
C 0.124793 4.01074 2.56201
C -1.04732 5.29612 0.866967
C -0.693914 5.09742 2.21242
C -3.12986 2.5294 2.3646
C -3.05615 1.89225 -0.00285336
C -2.71456 1.65951 1.33974
C -3.90577 3.6653 2.0247
C -3.82224 3.0252 -0.316971
C -4.26536 3.90069 0.676422
H -14.946 7.00136 5.10474
H -10.181 2.0106 2.51232
H -19.0231 8.68653 6.81044
H -13.8949 5.1253 6.27472
H 0.570432 2.64517 -0.527548
H -1.68551 6.12878 0.602775
H -2.10889 0.799887 1.59183
H -10.5966 6.47608 7.18982
N -5.89816 1.89225 5.69903
N 36.6474 6.70094 3.54509
N -9.07918 4.33972 2.72407
N -8.49193 5.5411 2.84599
N -12.256 5.58793 0.927967
N 40.9664 3.05623 4.94611
N -7.4742 2.56909 0.331958
N -8.15562 3.45194 -0.416748
N 1.42673 1.99648 1.90416
N -7.4624 7.8812 7.01527
N -1.15321 5.97797 3.23013
N -1.95505 7.02245 2.96426
N -2.7636 2.23791 3.73433
N -2.64648 0.973908 -1.0398
N -5.07216 4.99869 0.266749
N -5.77674 5.7505 1.12713
O -6.79062 4.25895 4.43981
O -12.6444 7.93395 5.78195
O -5.54997 2.90493 6.43957
O 35.6413 6.68291 2.71843
O 36.973 5.592 4.14524
O -6.14639 0.767039 1.90969
O -12.0711 4.35862 0.540255
O -11.7317 5.96247 2.05902
O 40.5187 3.96429 4.12718
O 41.3474 1.91308 4.45329
O 0.487078 3.8536 3.81843
O 2.36488 1.61329 1.08671
O 1.22014 1.30854 2.99012
O -8.10752 8.95277 6.65479
O -7.15836 7.00599 6.10049
O -4.2793 4.50875 2.96136
O -9.93655 8.15674 4.0988
O -2.63614 3.18641 4.61677
O -9.51463 4.40837 6.26027
O -1.94754 -0.0872622 -0.755889
68
 Atoms. Timestep: 134403
C -7.06956 1.95107 4.85457
C -16.3784 7.91906 3.78258
C -15.2528 7.91956 4.62386
C -7.47656 3.15625 4.23426
C -9.32048 1.98396 3.16954
C -8.61082 3.16916 3.38604